9
Properties=species:S:1:pos:R:3:forces:R:3 Malonaldehyde=T molecule=T energy=-7274.579732604637 free_energy=-7274.579732604637 stress="inf -inf inf -inf inf -inf inf -inf inf" pbc="F F F"
C        0.08844510      -0.70483206       0.27003608      -0.00713038      -0.00364051       0.00029872
C        1.19745117       0.06290452       0.14616144       0.00149653      -0.00218108       0.00357482
C       -1.20551659      -0.11357391       0.05902607      -0.00299946       0.00120849      -0.00332354
O        1.18259308       1.34418864      -0.15766571       0.00705207       0.00395799      -0.00146257
O       -1.37799132       1.07106558      -0.22851302       0.00203450      -0.00693778       0.00119025
H        2.19461288      -0.33620536       0.29203272      -0.00523741       0.00662128       0.00040487
H       -2.08218447      -0.76750327       0.16170624       0.00342769       0.00088657       0.00506333
H        0.17362676      -1.74898960       0.52264513      -0.00120486       0.00214310      -0.00507150
H        0.22896339       1.59294545      -0.26542894       0.00256131      -0.00205807      -0.00067439
