708
Lattice="19.49 0.0 0.0 0.0 19.49 0.0 0.0 0.0 19.49" Properties=species:S:1:pos:R:3:forces:R:3 energy=-1046649.0826389687 free_energy=-1046649.0826389687 stress="-0.003068839771521888 0.0001173840509081514 0.00017948173620593204 0.0001173840509081514 -0.0034931548521568746 -0.00038221815287482394 0.00017948173620593204 -0.00038221815287482394 -0.004061646174334723" pbc="T T T"
C       15.19876707      11.37988621       8.41227321       0.00324998       0.02283107       0.00100770
C       14.08252660      10.62883188       8.04843564       0.03054539      -0.01529956       0.00706927
C       13.06677047      10.40809495       9.00918334       0.01470175      -0.02251933      -0.02117732
C       13.24439476      10.92065316      10.30243603      -0.03215535      -0.00417816      -0.02431457
C       14.36139291      11.64492841      10.64761633      -0.01857804      -0.04489086      -0.00480409
C       15.34557883      11.87432714       9.68559582      -0.03601805       0.01685323      -0.00023118
H       15.96672525      11.56954400       7.67652905       0.01171142      -0.00476299       0.00447302
H       12.47454605      10.72625861      11.03037283       0.00720271       0.01183067       0.01613846
H       14.47076915      12.01479741      11.65339469       0.00557919       0.00241504      -0.03072262
H       16.24364210      12.41615067       9.93999248      -0.00926744      -0.02505389      -0.02768763
N       11.88497398       9.66103455       8.81907093       0.02036586      -0.00793220      -0.02925692
N       11.67610504       9.21662202       7.66584473      -0.00797642      -0.01845609      -0.01823235
C       10.56287654       8.35383582       7.52416630      -0.01479804      -0.00490919       0.02047491
C       10.59560457       7.53299524       6.40044924       0.00046682       0.01016204       0.01064407
C        9.54216080       8.21792644       8.46068214      -0.00803974      -0.00073415       0.02146216
C        9.65398409       6.54335490       6.21507747       0.00963078       0.01083322      -0.00321237
H       11.40287403       7.63570875       5.69997102       0.00886375      -0.01640454       0.01272979
C        8.61087163       7.20974126       8.31113110      -0.00059045      -0.00046979      -0.00331383
H        9.49749444       8.88155167       9.30943377       0.01538507       0.00542153       0.01898225
C        8.68594395       6.39498952       7.19105310       0.00637049       0.00838283      -0.00616444
H        9.69991441       5.87201495       5.37194079       0.00010705       0.01838679      -0.01029417
H        7.82697953       7.03988717       9.03491694       0.00156707       0.02685558      -0.00871756
N       14.03636310      10.06625025       6.78690308      -0.02983789       0.02616575       0.00987570
H       14.46684543      10.62554440       6.07298839       0.01276102      -0.00737426       0.01370699
H       13.10695248       9.74563700       6.56653596      -0.01731298      -0.00476798       0.00796002
N        7.71728066       5.30222092       7.05555271       0.01222150       0.01502354       0.01030048
O        6.92340723       5.13276129       7.95798937       0.00849150      -0.01292962       0.01357543
O        7.77228427       4.61156571       6.05454934       0.02820028       0.01502175       0.00610127
S        7.70138724       9.31013420      17.54602394       0.00490670      -0.01219050       0.00315760
O        8.36388718       8.37343327      18.53907133       0.00663411       0.00821964      -0.00419555
C        7.74738590      10.92661532      18.30522769      -0.00627570      -0.01318626       0.00739739
C        5.94115192       9.06245076      17.67276516      -0.00096822       0.01039040       0.00192100
H        8.77502925      11.28579798      18.30004386      -0.00456561      -0.00948866      -0.00247170
H        7.36608245      10.82076590      19.31843254      -0.01129824       0.01511182       0.01687969
H        7.11075556      11.60648445      17.74230625       0.00062590      -0.00805151      -0.00227113
H        5.47666668       9.77993184      17.00462277      -0.01927267       0.00870213       0.00316305
H        5.61749114       9.20634435      18.70236496       0.00168040       0.00266889       0.00919711
H        5.71049684       8.06342363      17.31925835      -0.00789238       0.00955522       0.00401749
S       11.10830693       6.78005070      16.48421298      -0.00816162       0.00495811      -0.00439515
O       11.95677960       6.19316039      15.38052705       0.01144622      -0.01365689       0.02162810
C        9.48422544       6.04309501      16.35669628       0.00192217       0.00262036      -0.00898067
C       10.61844507       8.42400037      15.96467201       0.00235563       0.00217789      -0.00660491
H        9.55953061       5.00291081      16.66292907       0.00348774       0.00757824      -0.00229799
H        9.11453942       6.11529992      15.33776471      -0.01015156      -0.00510829      -0.00179440
H        8.84564750       6.58064214      17.05056215       0.00324797      -0.00542516      -0.00697798
H       10.13455770       8.90385218      16.80974495       0.00640377      -0.00484053      -0.00250431
H        9.92702703       8.37656756      15.12422353       0.00657161       0.01177337      -0.00585078
H       11.51535497       8.98733984      15.71590060       0.00022813       0.00148446      -0.00092579
S       15.99751720       1.42675564       9.36837680      -0.00915904       0.00115650       0.00295245
O       15.77046235       2.05241261      10.71339427       0.00715506      -0.00012517       0.00652203
C       17.57678103       2.02159214       8.78708561       0.00290366       0.00363088       0.00080273
C       15.01646062       2.33353991       8.15983575       0.00260806      -0.00373855      -0.00357902
H       18.35800716       1.57501244       9.39209978       0.00397460      -0.00305130       0.00574277
H       17.60702188       3.10707468       8.84311045      -0.00114012       0.01098485       0.00226078
H       17.69007006       1.69135152       7.76162849       0.00764525       0.00495380      -0.00593952
H       15.33354748       2.01461065       7.16875862       0.00506001      -0.00180067      -0.00419387
H       15.17884426       3.39768344       8.30633735       0.00276239      -0.00591629       0.00465538
H       13.96892831       2.08239082       8.30111170       0.00145615       0.00289489       0.00023394
S       17.00595564      15.94687704      12.15580474       0.00191655      -0.00523613      -0.00814657
O       16.38067456      17.03291612      11.32129381       0.00793772       0.00154773       0.00787555
C       18.48573500      15.42701084      11.29909541      -0.00026378       0.00197595       0.00426778
C       16.06854290      14.46709640      11.79845801      -0.00988026       0.00330454       0.00441163
H       19.16052421      16.27634913      11.33798579      -0.01136408       0.00505354       0.00508238
H       18.23886212      15.15306775      10.27505128       0.01223951       0.00019893       0.00976699
H       18.89894699      14.57621534      11.83775144       0.00952379       0.00648776      -0.00523155
H       16.50850290      13.60594356      12.28828892      -0.01187854      -0.00005522      -0.00462245
H       16.05956909      14.33428444      10.72079171      -0.00570452      -0.00175499       0.00866967
H       15.05729762      14.61645540      12.16110394      -0.01079805      -0.00008222       0.00307715
S       17.45724221       7.79488872       9.35642271      -0.00463846      -0.00093988       0.00716899
O       16.99810729       6.37689663       9.23974049      -0.00350477       0.00048583      -0.00418540
C       16.27887119       8.67862954      10.38334354       0.00131512      -0.00126128       0.00294921
C       17.02480956       8.59611690       7.80963209      -0.00005111      -0.00465447       0.00096939
H       16.24757315       8.15212448      11.33193866       0.00415519       0.00107004      -0.00160175
H       15.29348622       8.69709337       9.92369307       0.00428078      -0.00356250       0.00813530
H       16.63778376       9.69438127      10.53680826      -0.00009112      -0.00506079       0.00050304
H       17.26681348       9.65127837       7.87053533      -0.00422810      -0.00465700       0.00336454
H       15.96435470       8.46778882       7.60957591      -0.00056570       0.00410748      -0.01243418
H       17.61970019       8.12552157       7.03341332       0.00609171      -0.00186136       0.00156851
S       15.90679377       7.05257532       1.71888960       0.01575428       0.00712024       0.00681945
O       16.93436350       6.03488644       1.32647914      -0.01042651      -0.00764485      -0.01426480
C       14.27603021       6.39566047       1.36009232      -0.00254140       0.00062049      -0.00570144
C       15.95759427       8.32651865       0.46526224      -0.00627650      -0.00141700       0.00465238
H       14.09516666       5.56582804       2.03920177       0.01105881       0.00242518       0.00631090
H       14.21564943       6.05013669       0.32843711      -0.00652120       0.00565569      -0.00642677
H       13.56942362       7.19747941       1.55219334      -0.00811452       0.00123357      -0.01078330
H       15.36187663       9.16851871       0.79934855       0.00206568       0.00856597       0.00202439
H       15.60303798       7.94778640      -0.49112401       0.00909592      -0.00830535      -0.00022662
H       17.00553040       8.60799714       0.40226365      -0.01128539       0.00753530      -0.01001706
S       19.01422736      17.12664811       2.89521179      -0.00801080      -0.00400718      -0.00010971
O       18.08936283      17.41406602       4.04133560      -0.00209171       0.00240740       0.00387945
C       18.10782135      17.47180869       1.38424547      -0.00127396       0.00032097      -0.00683767
C       19.07406338      15.34370354       2.72898321      -0.00123027      -0.00598121      -0.00143814
H       17.93346452      18.54409862       1.33540483       0.00682713       0.00136916       0.00051533
H       17.17145855      16.92022693       1.37751756       0.00015228       0.00030786       0.00460672
H       18.73836446      17.17648767       0.54885954      -0.00365263       0.00200428      -0.01174012
H       19.49986204      15.08316082       1.76219183      -0.00442089      -0.00099250      -0.00007181
H       18.07592704      14.93186405       2.84131944      -0.00149324       0.00264945       0.00195474
H       19.73490253      14.96030044       3.49906870       0.00163692       0.00216009      -0.00977499
S       17.27883948      10.93128258       3.27502623      -0.00355962       0.00317427      -0.00857091
O       17.97598176      12.25503000       3.27130128       0.00105398       0.00043061      -0.01063504
C       16.77290015      10.66729599       4.97465305      -0.00133935      -0.00489184       0.00731359
C       18.53006369       9.64462285       3.18182922      -0.00421791      -0.00062727       0.00630238
H       16.02506033      11.43026153       5.17073103      -0.00172001      -0.00208497       0.00202281
H       17.61113568      10.82765145       5.64471218       0.00411592      -0.00062336       0.00254896
H       16.34729982       9.67396080       5.09691967       0.00723807      -0.00820430       0.00520201
H       18.04995464       8.67608595       3.30571835      -0.00758566       0.00046484      -0.00123711
H       19.31346592       9.80126990       3.92317545       0.00568776      -0.00235472      -0.00088607
H       18.96119908       9.70067995       2.18495332      -0.01491323       0.00116693       0.00392905
S        6.27816544      16.40046539      11.11855344      -0.00653207       0.01644144       0.01199037
O        5.01334733      15.79275213      11.66554278      -0.00427918      -0.01002953      -0.01117186
C        5.84691343      17.20712764       9.58302220       0.00420141      -0.00431287      -0.00001557
C        7.22417614      15.06253735      10.39375065      -0.00432592      -0.00675180       0.00092377
H        5.32484363      18.13097601       9.80693594      -0.00110614      -0.00727153       0.00049080
H        5.19253040      16.56088545       9.00071512       0.00020054       0.00169792      -0.00451871
H        6.76747189      17.43825366       9.05787618       0.00749018      -0.00359000       0.00167768
H        8.06990641      15.49889425       9.87318514       0.00142166       0.00509226      -0.00461123
H        6.59044054      14.49282125       9.72045156      -0.00634155      -0.01611013      -0.01690743
H        7.56194603      14.42459581      11.20781410       0.01076143      -0.01117545       0.00666659
S        2.80518019      13.09553139       2.42378694      -0.00805023       0.00488743       0.00757237
O        2.30678198      13.97984508       3.53107933      -0.01244937       0.00849868       0.00787751
C        1.58046531      11.83062855       2.11661976      -0.00692551      -0.00632765      -0.00494071
C        4.05646256      12.06781500       3.16284308       0.00244249      -0.00413720      -0.00365262
H        0.70135871      12.32214257       1.71286996      -0.00725311       0.00455858      -0.00006308
H        1.35485741      11.30375707       3.03910943      -0.00501378       0.00679138       0.00752354
H        1.99377986      11.15686087       1.36956935       0.00389370      -0.00441967      -0.01013581
H        4.44553969      11.38282769       2.41397378      -0.00141232      -0.00132939      -0.00681150
H        3.64567857      11.52809113       4.01471351       0.00782506      -0.00730437      -0.00743130
H        4.83945706      12.75525858       3.47187849       0.00538238      -0.01221575      -0.00334974
S        9.29802739      19.08228690      10.17055216      -0.00322423      -0.00915993       0.00828101
O        9.01862414      17.64577437       9.83599492      -0.00758121      -0.00938915       0.00489538
C        9.50465965      19.16702354      11.94592813       0.00271956      -0.00359971       0.00830342
C        7.73351989      19.95242362      10.11010552       0.00110193       0.00063476       0.00221093
H       10.47587041      18.74999531      12.19549978       0.00150757      -0.00509243      -0.00330637
H        8.69279815      18.60785754      12.40563917       0.00026862      -0.00010631       0.01102146
H        9.48322159      20.21508790      12.22563942       0.00060207      -0.00534791       0.00478243
H        7.92226356      20.98893901      10.37873095       0.00749191       0.00103970       0.00355049
H        7.04331845      19.51019917      10.82411846      -0.00150263      -0.00683075      -0.00523848
H        7.35159147      19.87205220       9.09479610      -0.00010105       0.00253911       0.00110604
S        3.28469578       7.99694484      14.90909923       0.00284483      -0.00757248      -0.00225420
O        3.00139175       8.18369267      16.37052060       0.00252945      -0.00708417      -0.00145361
C        2.64873016       6.37112298      14.46939190      -0.00232330      -0.00023382       0.00506985
C        5.02498298       7.57859809      14.76387753      -0.00219701      -0.00291838      -0.00437311
H        1.56410760       6.40554612      14.52928341      -0.00097534       0.00704040       0.01192347
H        3.04658935       5.63891988      15.16848973      -0.00312856       0.00330321       0.00844455
H        2.95359398       6.13040182      13.45372704      -0.00770257       0.00023712       0.00564058
H        5.22336893       7.17603037      13.77746282       0.00452711       0.00464115      -0.00302147
H        5.26301984       6.83816852      15.52394709      -0.00875231      -0.00859831      -0.01257837
H        5.60917320       8.48827282      14.88469998      -0.00788066      -0.00310224       0.00409455
S        6.34369332       9.03849534       2.31651918      -0.01112531      -0.00312696       0.01037618
O        5.68002187       9.96202267       1.33203965       0.01192728      -0.01144126       0.00459829
C        8.08610160       9.44540636       2.31705901      -0.00614910      -0.00306152       0.00036251
C        6.48878072       7.44461641       1.52450611       0.00659241      -0.00333420       0.00351457
H        8.16877837      10.47484137       2.64943159       0.01042581       0.00079779       0.00316406
H        8.49019705       9.31921525       1.31401582      -0.01087560      -0.00738932      -0.01084180
H        8.58791090       8.81391409       3.04599661       0.00344496      -0.00259499       0.00370599
H        7.09005112       6.78269239       2.14329002       0.00217623      -0.01949333      -0.00232960
H        6.96245106       7.57981187       0.55469915       0.00035629      -0.01312876      -0.00784404
H        5.48495492       7.04028483       1.42108666       0.00208174       0.00402998      -0.00172646
S        5.26440318       3.35294933       2.72976918      -0.00908623      -0.01022329      -0.02007071
O        3.86467669       3.02532247       3.12997566      -0.00403968      -0.00908135       0.01796005
C        6.38656249       2.20600085       3.55249940      -0.00319106      -0.00850830       0.00595403
C        5.74658577       4.78510288       3.69515547      -0.00167729      -0.00682445       0.00050163
H        6.09462975       1.20089228       3.25852925      -0.00145689      -0.01360762       0.00239927
H        6.32410421       2.32648337       4.63062467       0.00350232      -0.00017656       0.01521125
H        7.39671598       2.42341457       3.21455163      -0.00462526      -0.00446909      -0.00169851
H        6.81333834       4.95842502       3.58368306       0.00409325      -0.00131682      -0.00525413
H        5.48445850       4.59917531       4.73231866      -0.00451296       0.00595583       0.01500379
H        5.18602967       5.63483256       3.32292774      -0.00697665      -0.00372152      -0.00248646
S        3.76046435       8.02867481       5.88355979      -0.00336492      -0.00554853      -0.00174098
O        2.66177854       7.98152616       6.90896149       0.00239932       0.00013009       0.00908601
C        3.17710679       7.17797047       4.42926534      -0.00328676      -0.00263471      -0.01395703
C        4.97148964       6.81863235       6.41057448       0.00669044      -0.00362201      -0.00247264
H        2.22849615       7.63309490       4.16970526      -0.00226267       0.00010903      -0.00212941
H        3.07742122       6.11475551       4.62567177       0.00356090       0.00372432       0.00620074
H        3.88761328       7.37574270       3.62859614       0.00362404       0.00227203      -0.00688245
H        5.76206881       6.76977810       5.66423095       0.01131730      -0.00691022      -0.00145894
H        4.47778348       5.85656516       6.52448106      -0.00528516       0.00320126      -0.00090573
H        5.38516955       7.14237066       7.36186053      -0.00685749       0.00127713       0.00330544
S       16.38371855       1.90951350      -0.32085434      -0.00468691      -0.00864335       0.00612941
O       17.74579681       1.72394627       0.27214305       0.00072461      -0.00075040      -0.00271559
C       15.48941395       3.09872640       0.67995216      -0.00274531      -0.00065640      -0.00168219
C       15.42868484       0.49383001       0.21392325       0.00770226       0.00311444      -0.00374663
H       15.95491383       4.07296629       0.56587818       0.01211648      -0.00672869       0.00423412
H       15.52875565       2.76824399       1.71755893       0.00225207       0.01617745       0.00157879
H       14.46264793       3.12840736       0.31862253      -0.00396183       0.00060209      -0.00114081
H       14.37000496       0.66652248       0.02907229       0.01364576      -0.00386331       0.00659122
H       15.61531945       0.37519814       1.27930292       0.00247545       0.00020746      -0.01498962
H       15.77287202      -0.36678668      -0.35411709      -0.00126751       0.00341959       0.00756998
S        9.66197865      18.42005891       6.81349241       0.00485214      -0.00276376      -0.02696211
O        8.65990116      19.40499619       6.24154425      -0.00063012      -0.00337427      -0.00417705
C       10.90561003      18.15090595       5.56050509       0.01027206      -0.00265541      -0.01168826
C        8.89285427      16.81094595       6.70373056       0.00017473       0.00090016      -0.00478128
H       11.58043954      19.00019541       5.58645203      -0.00258094      -0.00272902       0.00713323
H       10.43995799      18.08452708       4.58432638      -0.01468811       0.00477896       0.01478295
H       11.43554958      17.23978009       5.82218218       0.00114519       0.00173670      -0.00029117
H        9.64555051      16.07734555       6.97454268      -0.01669264      -0.00732018       0.01265756
H        8.50787588      16.64802949       5.69885587      -0.00645249       0.00121261       0.00299095
H        8.08939252      16.79826595       7.43145985       0.00073836      -0.00252689      -0.00103175
S       10.46238991      13.96154179      12.27940796      -0.00104193      -0.00206388      -0.00243486
O       10.36998065      14.24036757      13.75174133      -0.00243530      -0.00179996      -0.00195796
C       12.18825267      13.64290818      11.93962371       0.00231948      -0.00075181      -0.00017141
C       10.39073318      15.56673093      11.48207409      -0.00198747      -0.00116152      -0.00343268
H       12.46980997      12.73452091      12.46658739      -0.00078826      -0.00153203       0.00109887
H       12.77739880      14.48575547      12.29352415       0.00438787      -0.00273688       0.00384968
H       12.32448977      13.51054448      10.86930289       0.00331774      -0.00087214      -0.00069077
H       10.54268067      15.49702196      10.40902555       0.00336564      -0.00284022      -0.00443956
H       11.15091777      16.20041674      11.92436845      -0.00788015       0.00539086       0.00107820
H        9.41379245      15.99794773      11.66707449      -0.00893845      -0.01092769      -0.00813901
S       12.16883269       3.24808507       3.23208146       0.00158219      -0.00332789       0.01430744
O       12.12009129       4.35741649       4.25308801      -0.01009701       0.00864053       0.00265746
C       10.53147463       2.53576064       3.09659531       0.00676376       0.00680657       0.00230454
C       12.98700332       1.82259972       3.93428342       0.00377636      -0.01891394       0.00078475
H        9.85506470       3.35496728       2.86553095      -0.00092721      -0.00485424      -0.00004597
H       10.24503157       2.02800672       4.01428713       0.00583008       0.00234668      -0.00970651
H       10.56992066       1.83414463       2.26586130      -0.01028162       0.00652772       0.00843091
H       12.78948728       0.99316174       3.25878460      -0.01656858      -0.00123221      -0.02607033
H       12.58993130       1.59593939       4.92211590      -0.00622850       0.00894962       0.00486401
H       14.05660407       2.00540686       3.96828314       0.00354453       0.01104530       0.00433227
S        4.12212894      18.30223709       4.50410628       0.00808051      -0.03780443      -0.00338018
O        4.72284889      18.46454229       3.13694516      -0.00077277       0.01696524      -0.00829231
C        5.48268164      17.98104219       5.62855286       0.00540465       0.01075862      -0.00130872
C        3.36592289      16.68165509       4.60644989       0.00071433       0.00385735      -0.00318112
H        6.09386295      18.87766601       5.69272449      -0.00155835       0.01540675      -0.00183884
H        6.08428273      17.16160813       5.24111809      -0.00689580       0.01883893      -0.00948671
H        5.05698946      17.76885756       6.60493516       0.00109442       0.01564109      -0.00670945
H        3.02960964      16.54963277       5.63156991      -0.00220008       0.00209160      -0.01559632
H        4.06366371      15.89940229       4.32530152      -0.00346398       0.02675385       0.00250428
H        2.52170682      16.67101939       3.92394979       0.01395046      -0.00151391      -0.00009499
S        7.87287143      10.99412625       6.24707975       0.00706967      -0.00020493       0.00877611
O        8.94439804      10.33227133       5.41392545      -0.00092639      -0.00116421      -0.00201319
C        6.71890587       9.70550511       6.68794612      -0.00334926      -0.00733080       0.00140015
C        6.76116194      11.78320308       5.09333089       0.00168088      -0.00051307      -0.00161712
H        7.18387307       9.04633805       7.41125597       0.00283818      -0.00365606       0.00555110
H        6.46044380       9.16616465       5.78093379       0.00026832      -0.00806691      -0.00615825
H        5.85110450      10.18860883       7.12249474      -0.00553958      -0.00438573       0.00128100
H        5.87520477      12.05636675       5.65732550      -0.00098339       0.00580808      -0.00109653
H        6.50639276      11.07216836       4.31113309      -0.00629463      -0.00131963      -0.01040633
H        7.22332375      12.67555484       4.67969026       0.00327083       0.00420416      -0.00389903
S        2.00684668      16.67530156       8.83852163       0.00908032       0.01521444      -0.00757128
O        3.14414505      16.54398293       7.86108276       0.00667800       0.02326683      -0.01329473
C        2.48020163      17.92024174      10.03871651       0.00801239       0.00808730       0.00667640
C        2.12065225      15.26376653       9.92153805       0.00738182       0.00020948      -0.00123768
H        2.79277001      18.77584278       9.44563773      -0.00145980       0.01224281       0.00917912
H        3.30103055      17.55896450      10.65981207       0.01305724       0.00343935       0.00025059
H        1.60897832      18.13635330      10.65436115      -0.00041092      -0.00391756       0.00006797
H        1.56125825      15.47106636      10.82737436      -0.00031581       0.00157184      -0.00213337
H        3.16782831      15.10484955      10.16065352       0.01101807      -0.00483088       0.00728521
H        1.71325697      14.39123608       9.42320620       0.00207660       0.00364792      -0.01281982
S       13.26935037      16.68270581       8.16524026       0.02118092       0.00384096      -0.00303793
O       11.80989299      16.36032211       8.03378908       0.01346354      -0.02536087       0.00163178
C       13.84703881      15.71237331       9.55216125       0.00697655       0.00432094      -0.00640831
C       13.33433478      18.28756594       8.97456788      -0.01254154       0.00080769      -0.00547960
H       13.92040539      14.68058334       9.21968684      -0.00428071       0.00852423      -0.01245221
H       13.10653592      15.80655970      10.34212381       0.00850343       0.00341033      -0.00209844
H       14.81075167      16.09592183       9.87661250       0.01255084      -0.01731087       0.01519940
H       14.27084967      18.40985932       9.51594436      -0.00880126      -0.02122582      -0.01269175
H       12.47728824      18.32891528       9.64187555      -0.00607896       0.01746088       0.00493994
H       13.21873481      19.06389980       8.22166824      -0.00483184       0.00177538      -0.00477223
S        2.91541720      16.67967307      15.28023995       0.01364806       0.00239677       0.00887506
O        2.08857680      15.71376780      16.09068650       0.00035410       0.01185697       0.01470999
C        2.25087043      16.61316425      13.61940087      -0.00824085       0.01140754      -0.00548569
C        4.47205914      15.86945804      14.92501966       0.00072978      -0.00181147      -0.00184993
H        1.37117335      17.24549074      13.57091306      -0.01784110       0.01325325      -0.00468786
H        1.97637272      15.58037840      13.42792261       0.00013411      -0.00274056      -0.00027324
H        3.00384965      16.95449112      12.91326888       0.00729900       0.00064754       0.00284894
H        5.01897205      16.49989503      14.22827717       0.00355195      -0.00152966       0.00818924
H        4.27973480      14.89580067      14.48293618       0.00940292       0.00540429       0.00031796
H        5.01012180      15.75868816      15.86437920      -0.00199682      -0.00084917      -0.00944462
S       12.14347314       1.21250047      17.46842255      -0.01535678      -0.00320496       0.00282541
O       12.23223117       1.44492933      18.94816125       0.00483251      -0.00513143      -0.00032497
C       13.82502108       1.02824735      16.87128377       0.00050964      -0.00156813      -0.00126254
C       11.87974097       2.80784005      16.69200759      -0.00731330      -0.00414562       0.00008899
H       14.22491828       0.07837679      17.20693686       0.00923649      -0.00398116       0.00057632
H       14.42259099       1.84022143      17.27395311       0.01684543       0.00110934      -0.00141263
H       13.80194283       1.05970968      15.78690549      -0.00235666      -0.00680146      -0.00544883
H       11.98567556       2.67904008      15.61792276       0.00114773       0.00213445      -0.00075659
H       12.59500931       3.53068701      17.08132778      -0.01743421      -0.00290431       0.00307056
H       10.86003614       3.10502624      16.91452491       0.00150224       0.00913109       0.01223351
S       13.55807515       6.14115702       9.85032375       0.01734493      -0.00095275       0.00343717
O       13.83967952       4.68354121       9.96185189       0.00528103       0.00385535      -0.00041008
C       11.78218959       6.35156639       9.68488874       0.00513096      -0.00559353       0.00002535
C       13.96702303       6.62938817       8.16884548       0.00179487       0.00038754       0.00255979