708
Lattice="20.65 0.0 0.0 0.0 20.65 0.0 0.0 0.0 20.65" Properties=species:S:1:pos:R:3:forces:R:3 energy=-1046649.2384683297 free_energy=-1046649.2384683297 stress="0.0008017203027613341 3.904727919743674e-05 -7.928517417522167e-05 3.904727919743674e-05 0.000819552622609775 3.02307247870927e-05 -7.928517417522167e-05 3.02307247870927e-05 0.0006004323262031608" pbc="T T T"
C       15.14741502      11.12627394       8.33227806       0.01487628       0.00685925      -0.00976221
C       14.04795266      10.40109158       7.87111576      -0.01404179       0.01482536       0.00982865
C       12.95537097      10.20929314       8.74739687      -0.00520968       0.00759072       0.04613124
C       13.00743764      10.77564713      10.02745533      -0.01393377       0.01655246       0.02785813
C       14.08927121      11.50744616      10.45895320      -0.00628923      -0.01906046       0.01017837
C       15.17046789      11.67503677       9.59552652      -0.01780846       0.01713850      -0.00403485
H       15.99767954      11.25973183       7.67851596       0.01130183       0.01647143      -0.04084870
H       12.15382724      10.61922021      10.66308101      -0.00099151      -0.00250915       0.01756908
H       14.10341723      11.92235424      11.45418264       0.00154909      -0.01348238       0.00447570
H       16.04650000      12.21964539       9.92002487       0.01809045      -0.01258457      -0.00069329
N       11.79895592       9.44527489       8.50901125       0.00237358       0.00596063       0.01168163
N       11.62050480       8.97564638       7.36189640       0.01878391      -0.01070977       0.00112972
C       10.49220152       8.11862837       7.24451016       0.01446436      -0.02860413       0.00225670
C       10.48635058       7.29699073       6.12126188      -0.00390673      -0.00343554      -0.00870473
C        9.49078130       7.99376785       8.20680733      -0.01971285       0.00213524      -0.00167817
C        9.53756098       6.30387539       5.97897320       0.02121585      -0.00837008      -0.01601051
H       11.26993256       7.40370782       5.39052158      -0.00914247       0.00112950      -0.00213163
C        8.53779611       6.99952917       8.08258208      -0.01421850      -0.01030921      -0.01971175
H        9.47683203       8.65382231       9.05945102       0.02981076       0.00136789       0.01179856
C        8.58856900       6.16152167       6.97727876       0.02024428      -0.01403945      -0.01342541
H        9.56606919       5.62656109       5.13982714      -0.02025086      -0.01137507       0.00225831
H        7.76801759       6.85940448       8.82692912      -0.01478106       0.00042130       0.01124973
N       14.07074465       9.84797584       6.60256658      -0.02055989      -0.01779471       0.00530120
H       14.57263841      10.38779203       5.92004526       0.02860182      -0.02332800      -0.01649315
H       13.15909207       9.53313243       6.31399372      -0.03059919       0.01141169       0.00008433
N        7.63886597       5.03745108       6.89267456       0.01245967       0.00284853       0.02514627
O        6.85300356       4.88314525       7.80473674       0.01334265       0.03176772       0.00166810
O        7.70714843       4.31137181       5.91742978       0.01846205       0.01519502       0.01732133
S        7.39710276       9.53313331      18.16584729      -0.03128924       0.00106780       0.01703069
O        8.09499382       8.49216663      19.00997866       0.00591517       0.00471644       0.00673544
C        7.45805854      11.07583971      19.07263999      -0.00684026       0.01286960       0.00802447
C        5.63375615       9.27998165      18.31998755       0.00110997       0.00046799      -0.01032438
H        8.49373908      11.40573543      19.11479233       0.01728618       0.00738203      -0.00834499
H        7.04440775      10.91860856      20.06867715       0.00145595      -0.00162781      -0.01233145
H        6.85209451      11.80429902      18.53771512      -0.02837486      -0.01701149       0.00136123
H        5.15344615      10.08936484      17.77789384       0.01162797       0.01047062       0.00370629
H        5.34794317       9.29270900      19.37110418       0.00754027       0.00292312      -0.00993244
H        5.37598550       8.33943876      17.84278657       0.00057993      -0.00239789       0.00023899
S       11.29174767       6.98488735      16.67337352       0.01479091       0.02367175      -0.00077689
O       12.17168508       6.42185787      15.58216006      -0.01046982      -0.00261778      -0.01070085
C        9.69323640       6.18902304      16.53100229      -0.01350893      -0.00234940       0.01187848
C       10.74943281       8.59866415      16.11328791      -0.00160651       0.00706182       0.00466702
H        9.80456620       5.14831286      16.82460503      -0.00259091      -0.00844826      -0.00942364
H        9.32517513       6.26943252      15.50966087      -0.00631838      -0.00066370      -0.00137085
H        9.02112183       6.68857118      17.22545211       0.00318587       0.01556197       0.00710350
H       10.08981065       9.01331993      16.87080940      -0.00789264       0.00570380       0.00412650
H       10.22319029       8.49898849      15.16417134       0.00284188      -0.00370361       0.00981303
H       11.62123648       9.24153296      16.02400030       0.00087824      -0.00434354       0.00789946
S       16.33143019       1.11319036       9.14670074       0.00254581      -0.02488123       0.00171223
O       16.03966773       1.57663475      10.54348102      -0.00519158       0.00863225      -0.00467012
C       17.82202864       1.96802999       8.63099428      -0.00479118      -0.00048917       0.01128243
C       15.21305192       1.98076298       8.03258633      -0.00750666       0.00155031      -0.00641402
H       18.64456546       1.56539310       9.21676845      -0.00382136       0.00798491       0.00369199
H       17.70738117       3.03507594       8.81056858      -0.00272833       0.00386936      -0.00443537
H       17.98646621       1.78088643       7.57419036      -0.00275766       0.00149436       0.01089218
H       15.60228892       1.87172338       7.02147331      -0.00143443       0.00112092       0.00148283
H       15.16071193       3.02262890       8.33988565      -0.00155859       0.00897208      -0.00587853
H       14.22783465       1.52488458       8.09205493      -0.00299623      -0.01207505       0.01444578
S       16.98991493      16.07105984      12.33956435      -0.01877796      -0.01100287       0.00220201
O       16.27093567      17.08919246      11.49304783      -0.00366435       0.00991343       0.00285915
C       18.50764354      15.64975373      11.48194567       0.00512842       0.00065672      -0.00337697
C       16.14770128      14.51709593      12.04708563       0.00721547       0.00856986      -0.00526933
H       19.16538512      16.51488178      11.53745689      -0.00776107       0.01841820       0.00175893
H       18.27543781      15.39336122      10.45115453      -0.00750604       0.00556605      -0.00961851
H       18.95133105      14.80161667      11.99822339       0.01076867      -0.00514502       0.00352270
H       16.61247030      13.72861408      12.63017058      -0.00771259       0.01602118      -0.00762612
H       16.19457413      14.27792968      10.98699848      -0.01185430       0.00134743      -0.00018377
H       15.11767692      14.65154987      12.36425973       0.01954903       0.00434657      -0.00354182
S       18.01486943       7.85894428       9.27350110      -0.01900853      -0.00081725       0.00856508
O       17.61191923       6.42433804       9.13752543       0.00920787      -0.00443108      -0.00406944
C       16.79858520       8.67373399      10.31829704       0.00406481      -0.00286508      -0.00184790
C       17.54323275       8.66196556       7.73525261      -0.01129801       0.00321228      -0.00243568
H       16.86907689       8.20137929      11.29410053      -0.01301973       0.00705665       0.01090050
H       15.80106788       8.54099767       9.90575342       0.00330004       0.01344145      -0.00348830
H       17.04204660       9.73179907      10.39844314      -0.00928774      -0.00427355      -0.01940355
H       17.73297765       9.72955108       7.80867364      -0.00265838       0.01067140       0.00857264
H       16.49069248       8.47405069       7.53253812      -0.01519170       0.00062307       0.00725241
H       18.16233852       8.22536155       6.95814909       0.02368095      -0.01233401      -0.02537227
S       16.10155888       6.88589374       1.16796949      -0.00050934      -0.00177238       0.00468721
O       17.10287274       5.89232168       0.66381769       0.00194633       0.00165380       0.00849310
C       14.46487464       6.23661848       0.81290931       0.01195527      -0.00311939       0.00722266
C       16.07996920       8.24952574       0.00140248       0.00897120      -0.00643363       0.00013187
H       14.30148512       5.39623408       1.48514608       0.00766385      -0.00187453       0.00412663
H       14.41913310       5.90578416      -0.22462565      -0.00966072      -0.00656204       0.01121220
H       13.74384211       7.02504457       1.01472644       0.00745987      -0.00734398       0.01236512
H       15.37669980       8.99357502       0.36323239       0.00140325      -0.00212090      -0.00160278
H       15.80377265       7.88761741      -0.98728992       0.00484273      -0.00522810      -0.00249436
H       17.08590298       8.66157211      -0.00656888       0.00921868      -0.00472200      -0.00370438
S       19.37414897      17.32590134       2.91107192       0.00815415       0.00885632       0.00485413
O       18.39842006      17.59289921       4.01469501      -0.00024149      -0.02175691      -0.00178138
C       18.43804185      17.37964138       1.37598196       0.00452917      -0.00939497       0.02464511
C       19.69966083      15.55649978       2.89235197      -0.00293817       0.00121788      -0.00941255
H       18.03319652      18.38575455       1.28676738       0.01870870      -0.03416881      -0.02100785
H       17.64219640      16.64000468       1.41745731       0.00775270       0.00964891      -0.01406959
H       19.11527333      17.17586095       0.54917216      -0.03020613       0.00022778       0.00905548
H       20.27631829      15.31741723       2.00226123       0.00064896       0.00868205       0.00013882
H       18.76513121      14.99964766       2.91794364       0.00305405       0.00501533       0.00626345
H       20.31644589      15.32550065       3.75493869       0.00134160       0.00805185      -0.01833739
S       17.51752483      11.19409078       3.12387339      -0.00635532       0.00585975       0.00062786
O       17.99633082      12.61312183       3.19070268      -0.00692252       0.00597500       0.00932057
C       17.19470732      10.68568036       4.81692692      -0.00402364      -0.00599013       0.00215301
C       18.95434428      10.16279746       2.81185111       0.01935871      -0.01292582      -0.00714846
H       16.30444064      11.22600428       5.12734248       0.00078871       0.00246927       0.00332495
H       18.01234969      10.98633338       5.46436156      -0.00358770       0.00035383      -0.01510346
H       17.01214510       9.61383618       4.85554593      -0.00548297       0.00642281      -0.00818782
H       18.65344306       9.11752885       2.84898883      -0.01570303      -0.00769033       0.00116680
H       19.75667292      10.36544590       3.51832292       0.00624175       0.00809539       0.01195687
H       19.28671482      10.40296357       1.80494883       0.01087237      -0.00501413      -0.01960471
S        6.09755116      16.10739160      11.58457212       0.01915134       0.00647772       0.02297922
O        4.66903385      15.79281560      11.92699410       0.01646714      -0.00128091      -0.00051573
C        6.08503094      16.93447046       9.99786123       0.00763557      -0.00113557       0.00489556
C        6.85322015      14.57030099      11.04505612      -0.02144854       0.01075525       0.00012925
H        5.55991722      17.87508732      10.14166175       0.00823794      -0.00782755      -0.00568101
H        5.53963508      16.32853693       9.27840472       0.00742859       0.01127891      -0.01834331
H        7.11469924      17.13013226       9.70235858      -0.00097777      -0.00736558       0.00906786
H        7.79649857      14.78360104      10.54889089      -0.02923797       0.02056114       0.00362900
H        6.16475647      14.06434160      10.37324065       0.01399311      -0.01453180      -0.00294349
H        7.03283194      13.96325692      11.93063436      -0.00846555       0.01511714      -0.00877658
S        2.73487598      13.43324839       2.25169212      -0.03190905       0.00488741       0.00124075
O        2.01114151      14.26177814       3.27445191      -0.00054483       0.00763837      -0.01933538
C        1.62913073      12.13394412       1.70099000      -0.02350554      -0.00492783      -0.02517832
C        3.88019044      12.40897567       3.16165022      -0.00317654       0.00802856      -0.00712036
H        0.90336970      12.58123546       1.02693086      -0.02547373       0.02080688       0.01430791
H        1.14906118      11.67253015       2.56101263       0.01789034      -0.01315804      -0.00404822
H        2.22404285      11.40285691       1.15780510       0.01019775      -0.01523918       0.00346395
H        4.38611995      11.73873249       2.47003578      -0.00842426      -0.00621345      -0.01292998
H        3.35560239      11.85364635       3.93710626      -0.00734706      -0.00624164      -0.00218544
H        4.59986719      13.09930749       3.59367097       0.00153164       0.01260144       0.00937702
S        9.68781294      19.44251210      10.68097770      -0.02540979       0.00385357       0.00457957
O        9.58223832      17.95445216      10.45253193       0.00831381      -0.00295625       0.00272506
C        9.47282585      19.71649060      12.44031726       0.00143292       0.00411938      -0.00321326
C        8.11858103      20.15899597      10.19457554      -0.01648826       0.01042282      -0.00544588
H       10.39742207      19.46391585      12.95282455       0.00557307      -0.00309811      -0.02383932
H        8.63643852      19.10640218      12.77889453       0.01298295       0.00464692      -0.01380767
H        9.26042022      20.77160028      12.57785134       0.00440313       0.00459397       0.01163013
H        8.14413826      21.21149031      10.46558964       0.01341818       0.00667564      -0.00419852
H        7.31736211      19.65164631      10.72827739      -0.00397351       0.00098641       0.00647880
H        8.01430056      20.03696092       9.11863594       0.00714700       0.00544135      -0.00731422
S        3.08018938       7.73641401      15.41597617       0.00735497       0.00496151      -0.00316190
O        2.88122868       8.02508911      16.87231784      -0.00231960       0.00665132      -0.00866316
C        2.64300751       6.00485521      15.19324909       0.01024107      -0.01200003      -0.00117698
C        4.84640767       7.56244273      15.13701596       0.00578629      -0.00066492      -0.00162082
H        1.57678186       5.92269477      15.38737905       0.00759657       0.00291294       0.00304363
H        3.20635228       5.39736916      15.89854984       0.00575950      -0.00870376      -0.00193923
H        2.85246420       5.70687283      14.16864594       0.00248479       0.00138022      -0.00707438
H        5.00829528       7.14743395      14.14503033       0.00874768       0.00277192      -0.00243408
H        5.26371428       6.90253215      15.89391991       0.00160919      -0.00660513      -0.00796874
H        5.29145481       8.55549683      15.18221566      -0.00187059      -0.00184917      -0.00037522
S        6.26703304       9.17191083       1.93771181       0.01055037       0.01272640      -0.00095223
O        5.49829189      10.15499154       1.09710865       0.01384895       0.01356708       0.01345298
C        8.01128932       9.54597879       1.74474791       0.00433786       0.00345873      -0.00516330
C        6.29155612       7.61584263       1.04732992       0.00270841      -0.00601079       0.00984975
H        8.14360380      10.58701464       2.02721125       0.00302879      -0.02231228      -0.00288374
H        8.32499766       9.36217158       0.71794982      -0.01837695       0.01553515       0.02406871
H        8.56423872       8.93532354       2.45404651      -0.00210267       0.00505173      -0.01151478
H        6.95257561       6.92133261       1.56182102       0.00520788      -0.00668438      -0.01806278
H        6.65045319       7.78947458       0.03426224       0.01762564       0.01711024       0.01118134
H        5.27988839       7.22038710       1.04929255      -0.01751321       0.00399233      -0.00224586
S        5.42279706       3.54937113       2.10334835      -0.00255129      -0.01247219       0.00259674
O        3.97319220       3.29625627       2.34606401      -0.00415304       0.00233759      -0.01483448
C        6.33549217       2.16155399       2.79886171      -0.00251281       0.01321021       0.00370720
C        5.94651349       4.75789585       3.32700256      -0.00248558      -0.00303951      -0.00874674
H        6.00286173       1.26775736       2.27825790       0.00862626       0.00651035       0.00023094
H        6.10583134       2.08036861       3.85791552       0.01210267      -0.00695684      -0.01016749
H        7.39967088       2.32437938       2.64227719      -0.00789000      -0.00314171      -0.00134821
H        7.02334859       4.89306982       3.26045448      -0.00525132       0.00227275      -0.00566812
H        5.65311289       4.40766073       4.31247315      -0.00416984       0.00930779      -0.00228376
H        5.43172265       5.68482797       3.09510163       0.00045291       0.02017457       0.00665544
S        3.56594690       8.10863873       6.27565436       0.01058043      -0.00264521       0.01817224
O        2.38461567       8.14743759       7.20276006      -0.01361052       0.00224086      -0.00047007
C        2.99724963       7.45107979       4.71446546      -0.00355065      -0.01653014      -0.02418781
C        4.56614369       6.70096184       6.75692360      -0.00988867       0.01089872      -0.01097620
H        2.28595781       8.16822864       4.31397291      -0.01644574       0.01285906      -0.01219028
H        2.56361141       6.46700798       4.87494148      -0.01194326      -0.01641646       0.02738642
H        3.85722784       7.38646734       4.05048650       0.02994161       0.00195544      -0.01005816
H        5.39182012       6.62399483       6.04995296      -0.00697958       0.00207535       0.00407127
H        3.95286719       5.80160965       6.72371662       0.00619124       0.00136965       0.00224505
H        4.95105762       6.87667516       7.75989993       0.01524340      -0.01746094      -0.02091595
S       16.18391315       1.48444398      -1.02527564      -0.02122326      -0.03094268      -0.00861512
O       17.58376581       1.34116981      -0.50858304      -0.00429512       0.00341948       0.02682890
C       15.35446113       2.71844195      -0.01803345       0.01035641      -0.00103808      -0.00393999
C       15.27061435       0.05960785      -0.43184193       0.00511273      -0.00643848       0.00682568
H       15.84949080       3.67217322      -0.18688404      -0.00955474       0.00749808       0.00869148
H       15.43596557       2.41753694       1.02578567       0.00738920       0.01293196       0.00007320
H       14.31612812       2.76947198      -0.34029649       0.01894887      -0.02089938      -0.00304924
H       14.23322000       0.16413461      -0.74606761       0.03357018       0.01892385       0.01041696
H       15.36630596       0.02022559       0.65198565       0.01933722      -0.00187056      -0.00569674
H       15.72995555      -0.81280355      -0.89351111      -0.00934973       0.02012607       0.01049133
S        9.82109330      18.79463567       6.88600296      -0.00332703      -0.00668222       0.01334642
O        8.68725189      19.70293009       6.47230758      -0.00126235      -0.01145172      -0.01454027
C       11.00275948      18.78065589       5.54287184       0.00115781      -0.00620996       0.00535472
C        9.22318370      17.12001366       6.65086050      -0.00600823       0.01164268       0.00211982
H       11.48441051      19.75361637       5.52588699      -0.00157703       0.00352097       0.00892207
H       10.49344448      18.59688626       4.60171898      -0.00191822       0.00811527      -0.01009086
H       11.72188848      17.99892406       5.77417252       0.00805779      -0.01544364       0.00491405
H       10.07241129      16.45076915       6.75050765      -0.01508930       0.00475383      -0.00316298
H        8.76358556      17.04070326       5.66756244      -0.00792155      -0.01827736       0.00358695
H        8.49138477      16.92609350       7.43118073      -0.00153878       0.00471658       0.00064202
S       10.23884398      13.79332939      12.62635204       0.00115931       0.00876517      -0.01078262
O       10.19032308      14.04904141      14.10575298      -0.00409421       0.00130647       0.00210131
C       11.91982279      13.31901567      12.22877287       0.01232988       0.00612185       0.00132315
C       10.29874482      15.40815442      11.85295350      -0.00829669      -0.01152498       0.01371256
H       12.11651213      12.34184184      12.66310535       0.01351932      -0.00256905       0.00624081
H       12.60849098      14.05445056      12.64040845      -0.00381291       0.02298769       0.00200185
H       12.02591074      13.27288418      11.14691293      -0.00860929       0.00812360      -0.00336895
H       10.45732955      15.31090790      10.78315720      -0.00270883       0.01178468       0.02670707
H       11.10435033      15.97673655      12.30748244      -0.01344469       0.00892864      -0.02421943
H        9.35435048      15.91249504      12.02662923       0.00658146      -0.00382151      -0.00613426
S       12.28130938       2.92004068       2.98133981      -0.01856448      -0.00555042       0.01075481
O       12.29116166       4.12957619       3.88554737       0.03073154       0.02018017      -0.00713033
C       10.60675033       2.27802602       2.97531226      -0.01270997       0.00028714      -0.00090218
C       13.06159704       1.55979153       3.84749751      -0.01014050      -0.00528953      -0.00940551
H        9.98877752       3.01358079       2.46118410      -0.01908581      -0.01410435      -0.00401824
H       10.27326282       2.13015474       3.99940261       0.00019266       0.00412007      -0.02452303
H       10.61255163       1.33459767       2.43313178       0.00130164       0.01254196       0.00274713
H       12.76589568       0.64064503       3.34390833       0.00192397      -0.01059014      -0.00673630
H       12.73336003       1.53650656       4.88414013      -0.00476655       0.00477595      -0.00740311
H       14.13872273       1.67701802       3.77055570      -0.01404823       0.00375234       0.00741064
S        4.14880894      18.68380629       4.81425946      -0.00798919      -0.01891344       0.00356439
O        4.72115999      18.98286259       3.45570408       0.01178287       0.00712475      -0.00413822
C        5.54433852      18.31407629       5.87924728      -0.01224590      -0.01550793      -0.00149170
C        3.47813030      17.01669946       4.74993455       0.00752462      -0.01539938       0.00304750
H        6.13408522      19.21984940       5.98360922       0.00186265       0.00450651       0.00386374
H        6.14376768      17.53233928       5.41658198       0.00975877       0.00816226       0.00110996
H        5.15964910      18.01252884       6.84893415       0.00000333       0.00595041       0.00772782
H        3.15897707      16.74822731       5.75324632      -0.01081079       0.00860754      -0.00349153
H        4.24018567      16.32970375       4.39500209      -0.01316019       0.00096583      -0.01543031
H        2.63585683      17.01373627       4.06385412       0.01818337      -0.00427718       0.01210189
S        7.90431962      11.05454452       5.80740485       0.02029230       0.00138199       0.00357222
O        8.86324729      10.40443979       4.84490909       0.00224943      -0.00242124       0.00049681
C        6.73260554       9.80618841       6.32982155       0.01043990      -0.00972406      -0.00804423
C        6.74429693      11.98638358       4.81465237       0.00610059       0.02236524       0.00947350
H        7.26380899       9.08402607       6.94219514      -0.01349196      -0.01158645      -0.00599980
H        6.30226339       9.32840646       5.45314634       0.01433500      -0.01978454      -0.00701208
H        5.97410639      10.31703324       6.91749653       0.02229344      -0.02689608      -0.01884337
H        5.92317749      12.26056180       5.47131716       0.01001626      -0.01323182       0.01581161
H        6.39478969      11.36015035       3.99541693       0.02163903      -0.00013001       0.01700847
H        7.23849129      12.88427676       4.44761416       0.00415517      -0.00746053       0.00748022
S        2.15330398      17.39132761       8.76128383      -0.01135363       0.02388024      -0.02132005
O        3.40668616      16.88497024       8.10474425       0.00603928       0.00391557       0.00777387
C        2.62937153      18.82276900       9.73070547      -0.00615470      -0.00278409       0.00755586
C        1.83270491      16.28810771      10.13494575       0.00549893       0.01379907      -0.01965813
H        2.98422692      19.57349887       9.02599306       0.00262232      -0.01774539       0.00603741
H        3.40735704      18.54139055      10.43860756       0.00489119       0.00714696       0.01343376
H        1.74798687      19.16572061      10.26993905      -0.01512780       0.00627127       0.00642320
H        0.98844835      16.68390517      10.69650469       0.00737027      -0.00841456       0.01385270
H        2.73093857      16.22305279      10.74620931       0.00835764      -0.01545987       0.01986423
H        1.59373410      15.30793005       9.72697308      -0.00834304       0.00099390       0.00843995
S       13.66087627      16.84989502       8.23935375       0.01835237      -0.00245790      -0.01273446
O       12.34848385      16.65862231       7.53828452       0.00185094       0.00634847       0.00641806
C       13.59074750      15.83992876       9.71807680       0.00152063       0.00279309      -0.01101153
C       13.54677793      18.44904060       9.04715081      -0.00607904       0.01092849       0.00108607
H       13.59836549      14.80434226       9.38300368       0.00404680       0.00403377       0.00309474
H       12.67006507      16.07516026      10.24983656       0.00614452      -0.00664431       0.00176602
H       14.46500702      16.06785059      10.32403258      -0.00512166      -0.00295324      -0.01161433
H       14.38974051      18.57522876       9.72514135      -0.00487231       0.00335911       0.00110565
H       12.58959846      18.50383798       9.56203367      -0.01162438      -0.00093987       0.00914980
H       13.57354227      19.20654640       8.26764524       0.00380422       0.00549172      -0.00038632
S        2.12275703      17.10443040      15.28657047      -0.00815720      -0.02506683      -0.02793939
O        1.26270402      16.03131508      15.90252881      -0.02120685       0.01646021       0.03067139
C        1.57141970      17.26878860      13.59202876      -0.00268242       0.00658948      -0.01487039
C        3.71788247      16.36296005      14.93930794       0.00402698       0.00103315       0.00183109
H        0.65498630      17.85122819      13.57877031      -0.00197390       0.00410728      -0.00738249
H        1.38084594      16.27400970      13.20495744       0.00241421       0.00318087       0.01033810
H        2.34416757      17.77333387      13.01701582       0.00418242       0.00820915       0.00347975
H        4.30365638      17.07520841      14.36350550       0.01000969      -0.01251619      -0.00301286
H        3.58306177      15.44184502      14.37746476      -0.00976448       0.02718612      -0.00107171
H        4.18102503      16.15787740      15.90170897       0.02325141      -0.00524266       0.00445492
S       12.35807599       1.33137406      17.49204781      -0.01303869       0.01349910      -0.00444925
O       12.64016798       1.31024650      18.96031478      -0.00823549       0.00910366       0.00228940
C       13.91629833       1.01414730      16.65673013       0.02086184      -0.00470979       0.02736461
C       12.20159670       3.05494555      17.02047514      -0.00088483      -0.00727255      -0.02513517
H       14.22000417       0.00240644      16.90552863       0.00955155      -0.01548787       0.00398026
H       14.66334796       1.71850509      17.01049775      -0.00393227       0.00108945      -0.00234118
H       13.75714011       1.08362595      15.58468955      -0.00543567       0.00319417      -0.01695927
H       12.22323504       3.13274718      15.93504555       0.00468025      -0.00518836      -0.00070347
H       13.00507961       3.63301182      17.47399094      -0.00748065      -0.01578283       0.01295288
H       11.23156059       3.38443247      17.38159009      -0.01206319       0.00242432      -0.00523788
S       13.62515451       5.86944296       9.85269401      -0.01881365       0.00344443       0.01363083
O       13.89961531       4.40419375       9.87624616       0.01403151      -0.00182591       0.00516259
C       11.89161396       6.08890310       9.41042955       0.02356918       0.00088513      -0.00086875
C       14.31347446       6.49549200       8.31007597      -0.00284131       0.00609307       0.00278204