708
Lattice="21.0 0.0 0.0 0.0 21.0 0.0 0.0 0.0 21.0" Properties=species:S:1:pos:R:3:forces:R:3 energy=-1046648.9455711088 free_energy=-1046648.9455711088 stress="0.00058195964618732 0.00013656027489938215 -0.0001584651569724177 0.00013656027489938215 0.0009187852628547393 -7.07804703633924e-05 -0.0001584651569724177 -7.07804703633924e-05 0.0005401750873906746" pbc="T T T"
C       15.17134148      11.38476379       8.49458812       0.01018227      -0.02383400      -0.01251084
C       14.16249662      10.54877235       8.01470899      -0.00373321       0.00391927       0.00432255
C       13.12513604      10.17809517       8.90338461      -0.00396488      -0.00371617       0.00347551
C       13.14809172      10.66095236      10.22078111      -0.00368339      -0.02119268       0.00138122
C       14.14639658      11.49409408      10.66757027      -0.00464306       0.00230479      -0.01516804
C       15.15766252      11.86136156       9.78214265       0.01293190       0.00021266      -0.00152240
H       15.97323924      11.66090468       7.82688808      -0.00493155       0.02531290      -0.01078717
H       12.35865541      10.34865662      10.88577486      -0.00805341       0.00155683       0.00025809
H       14.15057931      11.83346486      11.68957673      -0.00896943       0.01087850      -0.01099451
H       15.95766774      12.50286629      10.11430527       0.02943187       0.00065735       0.01469893
N       12.05164425       9.31127302       8.63000942      -0.00048565       0.02128315       0.00608573
N       11.95418271       8.85435020       7.47029228       0.01622387      -0.01408882      -0.01058176
C       10.90213618       7.91746357       7.29215363       0.00055967       0.00777651       0.00531242
C       11.07634043       7.00031481       6.26034128      -0.01029016       0.00986092      -0.00314089
C        9.77159069       7.87000643       8.10194217      -0.00716562       0.00574079      -0.01535998
C       10.15935428       5.98411867       6.06951671      -0.00128682       0.01320196      -0.01115549
H       11.95788627       7.06149625       5.64069787       0.00355965      -0.00791400       0.02015693
C        8.81988989       6.89064848       7.89068618      -0.00911314       0.00376233      -0.00862965
H        9.63842045       8.60806593       8.87686879       0.00211312      -0.00628684       0.00031525
C        9.04318088       5.95458108       6.89064506       0.01595141      -0.00478720       0.00678896
H       10.33128737       5.23708762       5.30870324      -0.03592957      -0.01656127       0.01418459
H        7.91863213       6.85055158       8.48538676      -0.02280051      -0.00361288      -0.00866658
N       14.23594366      10.08191309       6.71610223      -0.00158936       0.00931502      -0.01166183
H       14.58648056      10.76697050       6.06670949      -0.00164816       0.00097951       0.00221247
H       13.37779590       9.63744854       6.42982337       0.00033734       0.00183218      -0.00020056
N        8.06366699       4.86733922       6.71922276      -0.00827411       0.02405405      -0.00560839
O        6.94989007       5.02866359       7.17637981       0.04229404      -0.01274468      -0.01489578
O        8.42908557       3.86621928       6.13063064       0.01601754       0.00829847      -0.00069752
S        7.27824487       9.34246692      18.38522596       0.00913497       0.00699583       0.00050384
O        8.13664913       8.57647955      19.37150761       0.00346338       0.01051885       0.01276035
C        7.32433781      11.07391173      18.85334046      -0.00165254       0.00055499       0.00573982
C        5.58397926       9.02431742      18.84076282       0.00898981       0.00112128      -0.00929160
H        8.35512172      11.41596917      18.78103088       0.00322973      -0.00472394       0.00611205
H        6.93974315      11.19522925      19.86410221       0.00086238       0.00026290       0.00019800
H        6.68384880      11.60444197      18.15200938      -0.00684149      -0.02059100      -0.00761270
H        4.95118005       9.64375261      18.21156932      -0.01061715      -0.00941019       0.00315399
H        5.45457672       9.25282309      19.89698563      -0.00128085       0.00472259      -0.01081004
H        5.37308023       7.98245667      18.61604269      -0.00702341       0.00233259      -0.00820077
S       11.23019693       7.70494236      16.33154675       0.00015952      -0.01640441      -0.00377200
O       11.80048151       7.01682945      15.11456816       0.00050399      -0.01831607      -0.01488680
C        9.94282661       6.61437078      16.94839221       0.00008861       0.00524914      -0.00732837
C       10.16226866       8.99906406      15.73327152      -0.00208672      -0.00140876       0.01275516
H       10.42890194       5.71127707      17.31326347      -0.00561993       0.01363461      -0.00736727
H        9.26604880       6.38060000      16.12791436       0.00341756       0.00494056      -0.00507071
H        9.41276896       7.10786325      17.76154854       0.01176856       0.00541532      -0.00794330
H        9.67718965       9.44161379      16.59770026      -0.01880077       0.02203386       0.00771022
H        9.43701881       8.59839930      15.02854241      -0.00272473       0.00198686      -0.00849068
H       10.79718978       9.75109181      15.26968094       0.01016948      -0.00169695       0.00786115
S       16.77938489       1.20334942       9.17407927       0.00359560      -0.02401955      -0.02650060
O       16.35695317       1.38591431      10.60877795      -0.00683291      -0.00202565      -0.01478496
C       17.36542829       2.80334689       8.60896499       0.01441174       0.01256936      -0.00530956
C       15.27903059       1.16677692       8.19065369      -0.00605321       0.00164192       0.01518530
H       18.29652724       3.02174149       9.12798881      -0.00226174      -0.01615297      -0.01346220
H       16.61024623       3.55094760       8.83253209       0.00511975      -0.00683348      -0.00372134
H       17.55498554       2.76140791       7.53750871       0.00048333       0.00087197       0.03282046
H       15.54775817       1.22973247       7.13961986       0.00534495       0.00450895       0.00783744
H       14.64661962       2.00195381       8.48316086       0.01070647       0.00200831      -0.01012566
H       14.77418378       0.22335914       8.36962150      -0.00924141      -0.01278754       0.01046266
S       17.00139208      16.14803022      12.33936866      -0.00609837      -0.01027140      -0.00808911
O       16.46621461      17.05021068      11.25951292       0.00299439       0.01429412       0.01989169
C       18.61454351      15.57845619      11.80134548       0.00078928       0.00222035      -0.00240101
C       16.15214307      14.58866826      12.12792452      -0.00414334      -0.00905375       0.00087243
H       19.26484788      16.45030893      11.78322631       0.00490534       0.00232260      -0.00479619
H       18.52859781      15.12593936      10.81495504      -0.01114447      -0.00060881       0.00060470
H       18.96498503      14.85184655      12.53174451       0.00441159      -0.00048244      -0.01197097
H       16.59013941      13.82413027      12.75949235       0.00267556       0.00231408       0.00403245
H       16.23188224      14.30972886      11.08096926       0.00308594      -0.01069331       0.00104576
H       15.11138279      14.73277783      12.40522080       0.00477382       0.02285076      -0.00787032
S       17.79245137       7.84296341       9.16566786       0.00712777      -0.00077164      -0.01378610
O       17.32488894       6.44270686       8.93598523      -0.01764254       0.00824352       0.00842052
C       16.53672447       8.67817804      10.14549347      -0.01200021       0.00098600      -0.00646403
C       17.48692965       8.72933808       7.62699357       0.00971788       0.00162696       0.00746896
H       16.48363224       8.15048583      11.09305883       0.00356889      -0.00035820      -0.00808699
H       15.57839143       8.63834213       9.63268937       0.00471217       0.00483574       0.02106065
H       16.82752952       9.71276963      10.31551199      -0.00349104      -0.01375962      -0.00495077
H       17.70204326       9.78525558       7.77167227       0.00560194      -0.00626498      -0.01149867
H       16.44777078       8.58977366       7.33391996       0.00653009       0.00597923      -0.01112548
H       18.15594653       8.30785299       6.88113855      -0.00644585       0.01127553       0.01585581
S       16.06510373       6.97909634       0.79507262       0.01732417      -0.00162486       0.00890720
O       16.89529860       5.89662337       0.18109694      -0.00881806      -0.00401091      -0.01133467
C       14.34694206       6.61594165       0.40586594      -0.00284606       0.00251031      -0.00083986
C       16.23933109       8.42530724      -0.25252766      -0.00670648       0.00433425       0.00138769
H       14.08765972       5.70716239       0.94550095       0.00718478       0.00038507       0.00190857
H       14.22493105       6.46683252      -0.66651910      -0.00305185      -0.00446833      -0.00665766
H       13.74139789       7.44913703       0.75597461      -0.01217348      -0.00062061       0.00522881
H       15.63901130       9.22746919       0.16789833      -0.00213624       0.00577516       0.00232404
H       15.92025217       8.18475707      -1.26444488      -0.00107557       0.00429817      -0.00694545
H       17.29334369       8.69219284      -0.23813037      -0.00076760      -0.00590838       0.00964439
S       19.59739497      18.02497733       3.82795954      -0.02896262       0.01484132      -0.01424746
O       18.50621029      18.32532882       4.80933741       0.01230662      -0.00544108       0.00935412
C       18.89838142      18.23192701       2.18297819      -0.00218062       0.00258884      -0.00617838
C       19.75182349      16.23215892       3.75601286       0.00073560      -0.00747209       0.00713428
H       18.74205488      19.29188237       1.99744159      -0.00240043      -0.00848195       0.00250502
H       17.95661444      17.69316209       2.13504751       0.02016754       0.00223591       0.02081251
H       19.60428627      17.83945527       1.45443537      -0.00186405       0.00564097       0.00262229
H       20.42288725      15.96564183       2.94305089       0.00191439      -0.00239538       0.00334005
H       18.77733695      15.76991800       3.61748225       0.00361493      -0.00701923      -0.00619563
H       20.18801873      15.90262578       4.69387817       0.01046827      -0.00588019       0.00618636
S       17.18446872      12.21585918       3.57524245       0.00750474      -0.00776468      -0.00216408
O       17.80838406      13.57801987       3.53960221      -0.00207952       0.00416513      -0.00961379
C       16.96158611      11.79141553       5.30703023       0.00508648       0.00932450       0.00291426
C       18.47022050      11.01859498       3.20044085       0.00880370       0.00013072      -0.00242903
H       16.04615546      12.27708607       5.63671421      -0.00634548       0.01237265      -0.00716521
H       17.80136800      12.17248758       5.88518776      -0.00123051      -0.00157573       0.00740682
H       16.86869273      10.71148533       5.40626153      -0.00506190       0.00670217       0.00755687
H       18.04064079      10.01973229       3.27313842       0.00034514       0.01707794      -0.00634446
H       19.33604271      11.11622485       3.85198272      -0.01035856       0.00778479      -0.01083124
H       18.77246764      11.20420642       2.17279608      -0.00250898      -0.01004874      -0.00943133
S        5.90410138      15.25157434      11.73966137      -0.00498581       0.00736790      -0.01547073
O        4.41705541      15.14094989      11.90559252      -0.00094950      -0.01604851       0.00965351
C        6.19023782      16.28188778      10.30102425       0.00460291       0.01609620      -0.02201740
C        6.46924454      13.70114410      11.03133215       0.00602807      -0.00890669       0.00714156
H        5.78144391      17.26197739      10.53113820      -0.01426496       0.01104066       0.01337783
H        5.67015760      15.87501237       9.43867562      -0.01695766      -0.00295485      -0.00717058
H        7.26156767      16.36305329      10.12736999       0.01716758      -0.00875552       0.01896042
H        7.51114405      13.80621611      10.74013243      -0.01522791      -0.00427062      -0.00378604
H        5.85042913      13.44445992      10.17465646       0.00044186       0.01735380       0.00770028
H        6.38812805      12.94440522      11.80697934      -0.00292202      -0.00656377       0.01404076
S        4.01995550      13.07307660       2.97017194      -0.01401673      -0.02449994      -0.00063768
O        3.13744046      14.07431726       3.67029920       0.01035071       0.00058743       0.01296938
C        3.12207783      12.46396940       1.54805076      -0.00785374      -0.00296096      -0.00813465
C        3.98591600      11.55401571       3.92019042      -0.00117502      -0.00877183       0.01953915
H        3.03143123      13.28438865       0.84016965      -0.00600431      -0.00556924       0.00312986
H        2.14626950      12.10680097       1.87419500       0.02164280       0.00998059      -0.00451978
H        3.71823234      11.67641962       1.09065636      -0.00894810       0.01848352       0.01061042
H        4.62936223      10.84445890       3.40376937      -0.01207393       0.00321379      -0.00052722
H        2.96461286      11.18105842       3.97993486       0.01026520       0.00772252       0.00623596
H        4.38345436      11.75831190       4.91229976      -0.00155929       0.00848297      -0.00525659
S       10.02897210      19.67165835      10.74988436       0.01062034       0.00993633       0.01121420
O       10.42663527      18.22596319      10.92195770      -0.00566126       0.00439585      -0.00276879
C        9.79904383      20.34850811      12.38911631      -0.01050961      -0.00025097       0.02560332
C        8.30172540      19.67825211      10.27421060      -0.00927062       0.00314670       0.00246649
H       10.72664150      20.20132597      12.93688954       0.01110268       0.00034681      -0.00965494
H        8.96556740      19.85399370      12.88302630       0.00564391       0.00811807       0.00468464
H        9.60234816      21.41175658      12.27392900       0.01540629      -0.02801017      -0.00801096
H        7.89233056      20.66362913      10.48511092      -0.00235584       0.01118280       0.00032132
H        7.79133354      18.92161516      10.86519585      -0.00706382       0.00770080       0.02848942
H        8.23091410      19.46206221       9.21076973       0.00377713      -0.00024999      -0.00549651
S        4.07960758       7.07995363      15.65737904      -0.02185837      -0.00077004      -0.03370476
O        3.68002317       7.07502297      17.09740469       0.00956017      -0.02196097       0.00797584
C        4.08766594       5.36543991      15.12306845       0.00407629      -0.01398633      -0.00682716
C        5.85679039       7.32907502      15.59491901      -0.00311006       0.00448723       0.00136278
H        3.05678228       5.02058565      15.12832190       0.00331340       0.01198111      -0.00777676
H        4.67995576       4.78162225      15.82124824      -0.00317143       0.00974072      -0.00374388
H        4.51178738       5.31317114      14.12388222       0.00590030       0.00561608       0.02163089
H        6.22417426       7.11303649      14.59498404       0.00246364      -0.01008788      -0.00089869
H        6.31954188       6.67227230      16.32934515      -0.00008965      -0.02046920       0.00365806
H        6.04342329       8.37221816      15.83500788       0.00401744       0.01222303       0.00391414
S        6.86828236      10.24382131       1.82262327       0.01704802       0.00350884      -0.01256031
O        5.83332457      10.58577579       0.79175603      -0.00001496       0.01151832       0.02517555
C        8.49125637      10.49541732       1.09945972      -0.00783262       0.00286356       0.00227907
C        6.96218511       8.45369409       1.89667430       0.00419563      -0.00323693      -0.00198028
H        8.60542602      11.54450047       0.84062124       0.00287830       0.00426220      -0.00597465
H        8.57552000       9.87693076       0.20747069       0.00264800       0.00396785       0.00894189
H        9.22110344      10.22461248       1.85841312      -0.00303763      -0.00369150      -0.00697644
H        7.67835974       8.20580757       2.67705159       0.00477597      -0.00557830      -0.02035511
H        7.26054854       8.06819101       0.92303514       0.00245088      -0.00857231       0.00403894
H        5.97551006       8.08164048       2.16017671      -0.00918698       0.00939552       0.00274304
S        5.82509912       3.83090492       2.21556876      -0.00043756      -0.02125553       0.00591451
O        4.39984182       3.76859478       2.65550838      -0.01790675      -0.01226332      -0.01306361
C        6.52809240       2.18710637       2.42698553       0.00870760       0.00359916       0.00855527
C        6.73292091       4.60687797       3.56000940       0.01729400       0.01186557       0.00105871
H        6.00094883       1.52252241       1.74720472       0.00806582       0.02199838       0.00572911
H        6.38342806       1.86012937       3.45422153       0.01233869      -0.00789353      -0.00591968
H        7.58188191       2.22708657       2.16441914      -0.01299374       0.00263513       0.00484861
H        7.79842643       4.46939804       3.40315210       0.02706280      -0.01282566      -0.00755452
H        6.41340921       4.15607824       4.49421668      -0.00162739      -0.00122383       0.00021151
H        6.48916875       5.66595455       3.54962065      -0.01511621       0.02068666      -0.00244348
S        3.29701027       8.45300842       6.02156559      -0.00276930       0.02039711       0.01426752
O        2.09731711       8.60496915       6.91229335      -0.00778786       0.00057130       0.00489693
C        2.71557213       7.78037891       4.46506232       0.00298037      -0.00776201      -0.01129427
C        4.16215932       6.97706567       6.56661889       0.01372065       0.00730869      -0.01643804
H        2.03378600       8.51120541       4.03565193      -0.01003870       0.00913495       0.00244199
H        2.23265095       6.82305311       4.64229659      -0.02128042      -0.00110884      -0.00049843
H        3.57576715       7.63829162       3.81437387       0.02439201       0.01151284      -0.01969381
H        4.94559462       6.74503181       5.84812674       0.01521797      -0.01124982      -0.00517408
H        3.44795101       6.15852482       6.60645385       0.00790121      -0.00760320      -0.00870956
H        4.61654427       7.16783663       7.53720523      -0.02053205       0.00908739      -0.02246983
S       17.38792274       0.94587452      -0.45672518      -0.02184575       0.01437580      -0.01313351
O       18.44262825       0.38788101       0.44444002      -0.01009001      -0.00321452       0.00703873
C       16.96865349       2.58241737       0.15296014      -0.00139287       0.00700620       0.00005339
C       15.84445910       0.16831920       0.02751346      -0.02540802      -0.00476578      -0.00327019
H       17.83391559       3.22808794       0.04163348       0.00356073      -0.00491981      -0.00313755
H       16.67627713       2.50376732       1.19752864       0.00920033      -0.01173537       0.00446538
H       16.15967658       2.98732959      -0.45005225       0.00272429       0.00278785       0.00027005
H       15.03208671       0.62019019      -0.53909891       0.01559773      -0.02327621       0.00895222
H       15.70740521       0.30598097       1.09891197       0.01059536      -0.01089547      -0.01299279
H       15.92270778      -0.88582077      -0.22737995       0.00466445       0.00926613      -0.00120766
S        9.97623724      18.64180700       6.93844121       0.00185978       0.00772654       0.00657773
O        8.93131623      19.67348750       6.59482901      -0.00847760      -0.00314805       0.00288229
C       11.20455820      18.67758367       5.63610632      -0.00532194       0.00036841      -0.00081807
C        9.25949585      17.04750400       6.53004675       0.00056476       0.00024614       0.00063699
H       11.82054332      19.55670843       5.80802431      -0.00418662      -0.00304137      -0.00223555
H       10.71521401      18.74787608       4.66808200      -0.00673606      -0.01086504      -0.00206075
H       11.80009121      17.77317807       5.72913757      -0.00567350       0.00338477       0.00732367
H       10.02523455      16.29388797       6.68629346      -0.00070673      -0.00510827      -0.00954457
H        8.90625673      17.05165759       5.50171295      -0.00674879       0.00186567      -0.00296837
H        8.42384711      16.88911777       7.20678621      -0.00186571      -0.00186511       0.00651061
S       10.26879619      13.76848724      12.45356674       0.00052283       0.00879815      -0.00884086
O       10.16279647      14.16751342      13.89536355       0.00969249      -0.00418543      -0.00753397
C       12.01390941      13.60509243      12.08453475       0.01496646      -0.00596222       0.00139971
C        9.99849521      15.25608777      11.48307227      -0.00162988       0.00779087      -0.00223183
H       12.38384698      12.74421545      12.63574378       0.00999411      -0.00624204       0.01719995
H       12.52690707      14.51637393      12.38497331      -0.00465917       0.00198819       0.01422877
H       12.14203996      13.43062325      11.01833007      -0.00918293      -0.00217470      -0.00603393
H       10.12855383      15.02958445      10.42686136       0.00707853      -0.00576016       0.00553534
H       10.68371023      16.04065274      11.78664130       0.00783125      -0.00904752       0.00450893
H        8.98108780      15.58797601      11.66773404      -0.00437119      -0.00750124       0.01229824
S       12.07951291       3.14855018       2.98191837       0.01110536       0.00328412      -0.01165408
O       12.19813472       4.29428528       3.96519005       0.00201301      -0.00120322      -0.00430158
C       10.52905772       2.32439666       3.33266556      -0.00066786       0.00480225       0.00114462
C       13.16176802       1.83894854       3.55295888      -0.00484649      -0.00103275       0.00412745
H        9.73249696       2.97425257       2.98146154       0.01316321       0.01280563      -0.00972256
H       10.45511377       2.13552270       4.40029163      -0.00237144      -0.00905313       0.00345093
H       10.51333927       1.39101215       2.77455460       0.00088170       0.00140526       0.00794768
H       12.95966620       0.95281171       2.95449546      -0.01052826       0.00991650       0.01216230
H       12.96981658       1.63091660       4.60401130      -0.01035642      -0.00791994      -0.00230208
H       14.19393492       2.14044051       3.40494592      -0.01473050       0.00336585       0.00150046
S        4.37856148      19.00734875       4.72924685       0.01295732       0.00806393       0.01095353
O        4.90352454      19.32330722       3.35620704      -0.00102048       0.00638669      -0.00171345
C        5.79712301      18.54368969       5.72736271      -0.00272174      -0.00898854      -0.00343446
C        3.63177351      17.37310288       4.63704565       0.00177095      -0.01555210      -0.00724757
H        6.42952424      19.42103358       5.84065700      -0.02211649       0.00049965       0.01077337
H        6.34860490      17.75770964       5.21420495      -0.00366219       0.00241819       0.00100370
H        5.44380724      18.20959663       6.69899905      -0.00596770      -0.00116940      -0.00743980
H        3.33466986      17.07029394       5.63767284       0.00558880       0.01454044      -0.00654163
H        4.32294855      16.65353326       4.21194876       0.01185788      -0.00802528       0.00510066
H        2.75842379      17.45490430       3.99621227      -0.01593010       0.00467682       0.00495737
S        8.34132304      10.21288147       5.55409859       0.01995281       0.01958980       0.02058637
O        9.07898841       9.86110148       4.29240501      -0.02369414       0.00045383      -0.00351899
C        6.89090927       9.15575218       5.62112260       0.03107617       0.02225684      -0.01148228
C        7.48706086      11.76381813       5.25108764       0.00598546      -0.00286073      -0.01147227
H        7.24724568       8.13506454       5.72548115      -0.02233013       0.00680668       0.01286904
H        6.30242181       9.27922467       4.71533484      -0.01539031       0.00409960       0.00309349
H        6.31030592       9.42678792       6.49759325      -0.00880057      -0.00109028      -0.01725473
H        6.74638270      11.92317872       6.03440781      -0.00065782      -0.01687154      -0.02055041
H        7.01967170      11.71568714       4.27102323      -0.01405523      -0.00126708      -0.00678651
H        8.21425426      12.57217192       5.26787535       0.02070825      -0.00621842       0.00871016
S        2.70754305      17.59757589       8.56955328       0.01044139       0.00366195       0.01923591
O        4.04839649      17.07669413       8.13632222       0.00291054      -0.00082869      -0.00118487
C        3.00988618      19.13684348       9.44190737      -0.00829006      -0.00276072       0.00367843
C        2.21674772      16.60114677       9.97931563       0.00171302      -0.00193447       0.00589287
H        3.39317958      19.84934938       8.71290909      -0.00135643      -0.00885905       0.00909571
H        3.71011525      18.96602381      10.25767227      -0.00795194      -0.01152209      -0.00792343
H        2.05934205      19.47988177       9.84795938      -0.00106047      -0.00983440       0.00388077
H        1.27641244      16.98551474      10.37091663       0.00249742       0.01610134       0.00410509
H        2.99442324      16.61601040      10.73999369      -0.00102560       0.01120194       0.00646804
H        2.08240372      15.58352314       9.61662667      -0.00760432       0.00123407       0.00454858
S       13.64097404      16.77215698       8.12484220      -0.01089405       0.02400216      -0.00743300
O       12.31107229      16.40878380       7.53306794      -0.00140666       0.01376019      -0.00358476
C       13.88544673      15.64652208       9.49662184      -0.00095575       0.00442964      -0.00891103
C       13.37553160      18.26707348       9.08189052      -0.00420162      -0.00343618      -0.00279338
H       13.99758741      14.64956594       9.07143839       0.00287061       0.00080696       0.00119307
H       13.00994015      15.69349647      10.14230506       0.00206818      -0.00198481      -0.00365342
H       14.78701690      15.94162750      10.02884047      -0.00465427      -0.00338767      -0.00132492
H       14.25202686      18.44839829       9.70454026      -0.01029147      -0.00299642      -0.00608544
H       12.47090258      18.13144566       9.67263330       0.00160071       0.00939519      -0.00287315
H       13.23175698      19.08789602       8.38294439      -0.00896466      -0.01006847       0.00037033
S        1.43532343      16.76037126      15.18786359       0.00221258      -0.00193948      -0.01195896
O        0.58711815      15.71081608      15.85932024       0.00532958      -0.00094090       0.00360160
C        0.81927932      16.91012493      13.51845431       0.00166706      -0.00262705       0.00288491
C        3.00531848      15.99506907      14.78418391       0.01285679      -0.00516311       0.00125106
H       -0.10772515      17.47260340      13.54460999      -0.00305048      -0.00503494       0.00202965
H        0.64012542      15.91433385      13.12547075       0.00438759      -0.00498130       0.01234999
H        1.55425447      17.44949635      12.92656024       0.00110964      -0.00208944      -0.00386850
H        3.56062924      16.66672514      14.13403656       0.00790388      -0.00010425       0.00107641
H        2.83274246      15.04716576      14.28074532      -0.01046712       0.00410503      -0.00475780
H        3.53140262      15.84098011      15.72274673      -0.00252763      -0.01136693       0.01363044
S       13.15392030       2.40467898      17.68039019      -0.02308131      -0.01286419      -0.01856449
O       14.56534458       2.74127715      17.28580183      -0.02625669      -0.00093304       0.00112066
C       12.09579789       2.92690220      16.32895589      -0.00752798       0.01062192       0.00425996
C       12.62600104       3.64428935      18.86351846       0.02343490      -0.01697899      -0.00904346
H       12.28097454       2.25144708      15.49782507       0.00060467       0.00510048      -0.00056861
H       12.33706541       3.94998901      16.04880530      -0.00915780      -0.00356224       0.00639206
H       11.06129668       2.84292275      16.65880268       0.02490533       0.00871308       0.00027742
H       11.56430182       3.48661198      19.04281544      -0.00620792       0.01649024       0.00207865
H       12.83561616       4.64487595      18.48547727      -0.00643474       0.00568402      -0.00874744
H       13.18668462       3.47481958      19.78034459       0.01046449      -0.00090857       0.00508082
S       14.23534111       5.69098914       9.39494604      -0.01529226      -0.01465117       0.01262529
O       14.49321918       4.25538936       9.07813492      -0.00836315      -0.00519433      -0.00993557
C       12.46063239       5.84958647       9.62875759      -0.01191641       0.00800350      -0.00703731
C       14.33924267       6.53455105       7.81441472      -0.00235842       0.00192293      -0.00151500