708
Lattice="21.34 0.0 0.0 0.0 21.34 0.0 0.0 0.0 21.34" Properties=species:S:1:pos:R:3:forces:R:3 energy=-1046648.4036007249 free_energy=-1046648.4036007249 stress="0.0009034118083855714 4.422865550853065e-05 -0.00024994617982671035 4.422865550853065e-05 0.0006638561696969012 -0.00012306584318586746 -0.00024994617982671035 -0.00012306584318586746 0.0008532281657693848" pbc="T T T"
C       15.50334123      11.07738841       8.64365214       0.01234353      -0.01995658       0.00451026
C       14.53238592      10.20616823       8.13898701      -0.02460399       0.03246220      -0.00632714
C       13.40417596       9.92952096       8.94910710      -0.01692871      -0.03339619      -0.00199392
C       13.29012461      10.53861627      10.20780785       0.00908718       0.00655497      -0.00775624
C       14.24785550      11.40544926      10.67680995      -0.00171618      -0.00134687      -0.00572462
C       15.36230078      11.66668088       9.87881523       0.01293667      -0.00110522       0.00507746
H       16.38164437      11.27694485       8.04258141       0.01134370       0.00383655       0.02006072
H       12.41933472      10.29835217      10.79872998       0.02672294       0.01726578      -0.01061018
H       14.14068824      11.85029353      11.65212984       0.01238454       0.01359334       0.01274965
H       16.15340914      12.30422443      10.24440147      -0.00938336       0.03305555      -0.01349306
N       12.33678420       9.07842423       8.63443672      -0.02950942      -0.02288896      -0.01791594
N       12.34218995       8.51502131       7.51649534      -0.00045226       0.02637501      -0.00224084
C       11.23254405       7.65811441       7.28835277      -0.00149871       0.02182155      -0.00008193
C       11.40366712       6.69488647       6.29914278       0.00460524       0.01726643       0.01230165
C       10.03545570       7.74696561       7.99711742      -0.00782342      -0.00054478      -0.00632753
C       10.38653954       5.80225360       6.02244464       0.02256685       0.00463427      -0.00324313
H       12.35038889       6.62882256       5.78626927      -0.01376583      -0.03761118      -0.00976452
C        9.00209981       6.87413465       7.71252672       0.01200577      -0.01531755       0.00570223
H        9.92249871       8.50525826       8.75596931      -0.01934413       0.00322886      -0.02247837
C        9.20158584       5.91405680       6.73040539       0.00735866       0.01031945      -0.01443535
H       10.51351681       5.03164664       5.28084597       0.00921681      -0.00054431      -0.02453883
H        8.05234354       6.93468217       8.22934724       0.02113932      -0.01284634       0.01452478
N       14.71706434       9.62245100       6.90979754      -0.00639842       0.01483901      -0.00658750
H       15.30185024      10.11865622       6.26337472       0.00503637      -0.02174456      -0.00769823
H       13.91534038       9.14346381       6.54196042       0.00153487      -0.00048933       0.02255297
N        8.10441946       4.97762509       6.42584258       0.01142975      -0.03013754       0.01561573
O        7.01623251       5.20058421       6.91365910      -0.03978876      -0.00177888       0.00456122
O        8.34783316       4.02732908       5.70387763      -0.00840126       0.01221595      -0.01936186
S        6.82270916       9.55803361      18.68327711       0.01135329       0.00653246       0.00413073
O        7.74362600       8.57815054      19.37101507       0.01020442      -0.00657608      -0.00680594
C        7.19923436      11.19866993      19.31587011       0.00559686       0.01022175      -0.00994334
C        5.20711484       9.40119648      19.43452404      -0.00310334      -0.00513368       0.00047460
H        8.23354852      11.42827984      19.06896560       0.00706018      -0.00194687       0.00664759
H        7.03318765      11.23590470      20.38982877      -0.00687452      -0.01871091      -0.00494945
H        6.52019805      11.89760281      18.83483671      -0.02179500      -0.00091081      -0.01168704
H        4.57506417      10.19064635      19.03378015      -0.01196363       0.00436817      -0.00214260
H        5.29496923       9.52811007      20.51122178      -0.00081556       0.00161588       0.00665469
H        4.82357127       8.42415071      19.15364464      -0.01649367      -0.00050633      -0.01389692
S       10.98307813       7.05429156      16.70927034      -0.00709606      -0.01489159      -0.00075878
O       11.79455423       6.51873589      15.55354378      -0.00183546       0.00027780      -0.00693705
C        9.41722030       6.17870193      16.70217859       0.01830320      -0.00354759      -0.00887742
C       10.33574698       8.63751673      16.19447118       0.00532633      -0.01410869       0.00624230
H        9.59899314       5.14424830      16.98552881       0.00460460      -0.00163064       0.00138642
H        8.98707793       6.24319272      15.70465579       0.00535349      -0.00551305       0.00413178
H        8.77082756       6.65554728      17.43652043      -0.00464381      -0.01372560      -0.00098023
H        9.66286747       8.98733957      16.97408445      -0.00212476       0.01010701      -0.01272607
H        9.81932207       8.52610321      15.24082596       0.00306168      -0.00046990       0.00026462
H       11.16857431       9.33151895      16.12135000      -0.00792918       0.00580187      -0.00131376
S       16.13039324       0.84359643       8.80938337       0.01678505      -0.00335183       0.00526197
O       15.77699364       1.06154282      10.26056099      -0.00798916      -0.00377039       0.00568118
C       17.05260467       2.29828263       8.30812621       0.01667082       0.00940789      -0.01016659
C       14.65695220       1.16801692       7.85124182      -0.01269523      -0.00937465      -0.00294312
H       18.00956947       2.27975578       8.82360958      -0.00357073      -0.00693219       0.01500892
H       16.48988692       3.18268376       8.59461566      -0.00047001       0.01079732      -0.00030979
H       17.20788824       2.26639930       7.23241068      -0.00974075       0.01143077      -0.00880651
H       14.94271193       1.14481859       6.80316354       0.01446354      -0.00440121      -0.00007075
H       14.25120093       2.13586293       8.13137313      -0.01366790       0.00533839       0.01618228
H       13.94165432       0.37686596       8.05006247      -0.04262631      -0.00401986      -0.00551474
S       17.17191513      16.26743340      12.35525911       0.01580806       0.00935140       0.00585552
O       16.08569541      17.15205160      11.80607196      -0.00668673      -0.00929316      -0.00996181
C       18.51334928      16.29474107      11.16636946      -0.00038838      -0.00487134       0.00127569
C       16.64027662      14.58442107      12.04070407      -0.00299117      -0.00686361       0.00355842
H       18.97143061      17.28052746      11.21570714       0.00516259      -0.02055112       0.00370988
H       18.11154426      16.08753259      10.17673733       0.00297275       0.00562300       0.00778593
H       19.23534473      15.53275006      11.45566593      -0.02153463      -0.00177325       0.00222905
H       17.43277816      13.88142811      12.28042263       0.00811859       0.00178346       0.01204194
H       16.37040532      14.49588984      10.98991633      -0.01753716      -0.00218651      -0.00436654
H       15.78506681      14.39666361      12.68402422      -0.01049831      -0.00755594      -0.00300883
S       17.98012122       7.56076295       9.80496291      -0.01429526       0.00905355       0.00831547
O       17.50378819       6.17986196      10.14632197      -0.00080194      -0.00079335      -0.01211377
C       16.90561456       8.71606261      10.66614659       0.01236587      -0.01536931      -0.00594799
C       17.40438862       7.91197397       8.14051680      -0.00619465       0.00375885       0.00530098
H       16.97416766       8.46095163      11.72022946       0.00827744       0.00160974       0.01241849
H       15.88076454       8.62198128      10.31702194      -0.00155780       0.00704303      -0.01082928
H       17.26837778       9.73043044      10.52296180       0.00126748       0.00486080      -0.00215999
H       17.62751695       8.95038305       7.90323684       0.00726509       0.00674387       0.00474230
H       16.33284857       7.73627627       8.07874730       0.01824299      -0.00599525       0.00546800
H       17.93894180       7.24634400       7.46806219       0.00584133      -0.00905591      -0.00278009
S       16.57191496       7.90012109       0.82597122      -0.01474563      -0.00958247      -0.01362560
O       17.58554080       6.97123637       0.23197991      -0.00337052       0.00106839       0.00366835
C       14.96439026       7.12976557       0.60992138       0.00542539      -0.00001212       0.00126275
C       16.31779553       9.23027046      -0.35333249       0.00044129      -0.01447342       0.01245612
H       14.90892410       6.29824943       1.30732511       0.00380293      -0.00086535      -0.01103129
H       14.85453575       6.77527289      -0.41359450       0.00422048       0.00493973       0.01363663
H       14.20463084       7.86829239       0.84959086       0.01432364      -0.01059079      -0.00136843
H       15.49169777       9.84347019      -0.00260571       0.00856148       0.00710395      -0.01004028
H       16.10438913       8.80787639      -1.33412008       0.00255496       0.00199325       0.01863295
H       17.23575309       9.81258285      -0.38067799      -0.01796194       0.00074201      -0.01131488
S       19.91827143      17.95968964       3.51841302       0.02239314       0.00837046       0.00722632
O       19.09302044      17.90854913       4.76414484       0.00442401       0.00021378      -0.01196531
C       18.74855929      18.04976996       2.15671743       0.00637558      -0.00531719      -0.00083437
C       20.51212984      16.28901018       3.17992505      -0.01430174       0.01621385       0.00912295
H       18.19431666      18.97593737       2.28178448       0.00032181       0.00873398       0.00378218
H       18.08145577      17.19601837       2.20713895      -0.01262627      -0.01707685       0.00781208
H       19.28861742      18.06371767       1.21375705       0.02441796      -0.00276610      -0.00082736
H       20.98414933      16.28522727       2.19935146      -0.00672145      -0.00908979       0.01538492
H       19.68556725      15.58135713       3.22021811      -0.00707516      -0.00026669       0.00391009
H       21.26905523      16.04948858       3.92107154      -0.01302712      -0.00487214       0.00931432
S       17.62417077      12.09079766       3.07273510      -0.00850190       0.01478739       0.01734870
O       18.07658552      13.49051235       3.37120838       0.00642073       0.00972628       0.00182898
C       17.31654463      11.27499057       4.64671558       0.00595877       0.00237199      -0.01751174
C       19.06880124      11.14702606       2.58063659      -0.01923100       0.00854855       0.00052768
H       16.35034493      11.63711064       4.99512794       0.02680937      -0.00040093      -0.00747027
H       18.08641723      11.53982290       5.37016692      -0.01121973       0.00501915      -0.01654070
H       17.26915379      10.20086461       4.47447251      -0.00589340      -0.00620921      -0.00116028
H       18.75657129      10.11785330       2.41448201       0.00707341      -0.02050970      -0.01008102
H       19.87065144      11.19716233       3.31209031       0.01216670       0.00026531       0.01219739
H       19.41009403      11.57817525       1.64268134      -0.00103409      -0.00725667      -0.00855025
S        5.76449170      15.32462997      11.75446172       0.01555524      -0.00094461       0.01426262
O        4.27889444      15.18126086      11.88110462      -0.01673331       0.00208324      -0.00217697
C        6.07897522      16.45994942      10.39795761      -0.00402345      -0.02006393       0.03598759
C        6.36878865      13.82429778      10.97557772       0.00724031       0.00135957       0.00024911
H        5.64427618      17.41058208      10.69989955       0.01270924      -0.00138083      -0.02759953
H        5.59243124      16.11855385       9.48734443      -0.00018069       0.02253550       0.01146477
H        7.15690747      16.57219271      10.28167056      -0.01737376       0.01318965      -0.00599988
H        7.37259538      13.99786272      10.59640244       0.00020505      -0.01155400       0.00464502
H        5.69670576      13.53381562      10.17088204      -0.00288670       0.00250025       0.00671728
H        6.40279086      13.05906306      11.74636425       0.00206181      -0.00054555      -0.00185026
S        3.08623559      14.04794306       2.21234855       0.02269510      -0.01822599       0.01054455
O        2.30326055      14.68491370       3.32568966      -0.00341894      -0.01432096      -0.01038915
C        1.94777505      13.06088962       1.24152961      -0.00725471      -0.00303182       0.01458173
C        4.00006937      12.68693299       2.93309666       0.01089653      -0.00478191       0.00231971
H        1.24432386      13.75836553       0.79628027      -0.02226578       0.00079531      -0.02954450
H        1.43397519      12.35417322       1.89040237      -0.01351897      -0.01461362       0.01756398
H        2.52031514      12.56640124       0.45910557      -0.00344012       0.01059689      -0.01713121
H        4.48620442      12.12608119       2.13775980      -0.01226653       0.01763147       0.00091559
H        3.31918287      12.05575078       3.50359560       0.00481275       0.02144494      -0.00324190
H        4.75887073      13.12921559       3.57655069      -0.01301827      -0.00503760       0.00176220
S        9.64968329      19.54923657      10.74526778      -0.00894952      -0.01180914       0.00914462
O        9.88641211      18.07429534      10.95080451       0.00294050      -0.00642197      -0.00263953
C        9.58688583      20.30924666      12.36599342       0.00488209      -0.00146698      -0.00664100
C        7.91101156      19.75827873      10.36529831      -0.00096570       0.00576563       0.00074018
H       10.51644973      20.08719594      12.88542212      -0.01211213       0.00184303       0.00993658
H        8.72918573      19.93443592      12.91949479       0.00837070      -0.00115523       0.00220558
H        9.50357450      21.38158015      12.21071385      -0.00093451       0.00880073       0.00133264
H        7.66468742      20.81050474      10.48580222      -0.01327814       0.01120125      -0.00787943
H        7.33492401      19.15915541      11.06642039      -0.00224100      -0.00794565      -0.00819201
H        7.74542685      19.44570918       9.33636296      -0.00892166       0.00650400       0.00452867
S        4.44953533       7.20316376      15.87872644      -0.00794849      -0.01461700      -0.00096166
O        4.39650730       6.90479054      17.34589905      -0.00338626      -0.00642469      -0.01116999
C        4.35582729       5.61691037      15.03836890       0.00344376       0.02637204       0.01965254
C        6.16288138       7.54674466      15.48539671      -0.00640728      -0.00121981       0.00111964
H        3.39996745       5.17351841      15.30458677       0.00971605       0.00850840      -0.01103690
H        5.17326984       4.98606751      15.37161209       0.00575092      -0.00567015      -0.00588117
H        4.42231357       5.78611450      13.96686812       0.00222131      -0.00187989       0.01059807
H        6.34392192       7.42868830      14.42216699      -0.00550022      -0.00391794      -0.00751637
H        6.77295670       6.84296884      16.04491567      -0.00193993       0.00458618       0.00679915
H        6.37598912       8.57003845      15.77930932      -0.00493160       0.00351253       0.00557933
S        6.85763940       9.94661638       1.87516816       0.00962352      -0.00470946       0.00868219
O        5.87486144      10.73562852       1.06158754      -0.00370163       0.00968845       0.01009573
C        8.46054636      10.05106601       1.07512509       0.01852346      -0.00264927      -0.00138997
C        6.57988969       8.20777905       1.51687706       0.00059715      -0.01947094       0.00182179
H        8.69405908      11.10174856       0.92417636       0.00930551      -0.00807140       0.00902050
H        8.42428274       9.52830166       0.12154879       0.00136270       0.01136833       0.00599625
H        9.18960509       9.61172328       1.75202590       0.00131884       0.00466518       0.00420800
H        7.29497777       7.63262998       2.10076818       0.00571538      -0.00910156       0.00108456
H        6.70966851       8.01442020       0.45409964       0.00320013       0.00231557      -0.01072040
H        5.57097688       7.96366658       1.83574681      -0.00438733       0.00400405       0.00206945
S        5.67898609       3.13879512       1.32937220       0.00075418       0.00894637      -0.01719917
O        4.31210395       3.30681009       1.90016399       0.02093428       0.01048762       0.00909380
C        6.73010868       2.41255291       2.59609625      -0.00644356       0.00024735      -0.00681877
C        6.44750768       4.76502873       1.36336775      -0.00675045      -0.00570584       0.00441873
H        6.41051749       1.38293236       2.72936086      -0.00046716      -0.00378237       0.00188602
H        6.61328569       2.96796180       3.52448254       0.00482284      -0.00062199       0.01078157
H        7.76168941       2.43391208       2.25111392       0.00103755       0.00146379      -0.00010883
H        7.48504743       4.67647449       1.04597801      -0.03622642      -0.01345098       0.00860264
H        6.36313335       5.16527737       2.37242732       0.01221551       0.00236362      -0.00583463
H        5.90020449       5.39653338       0.66828666       0.01147310      -0.01110010       0.00004960
S        3.39707834       8.41560273       4.96321676       0.02646830       0.02279520       0.02282045
O        2.34049547       8.44925564       6.02413959      -0.01900529      -0.00452580      -0.00592966
C        2.57289291       8.01459936       3.42260978       0.01700397       0.00572137       0.03202657
C        4.28554506       6.86540480       5.16536477      -0.01115477       0.01264932       0.00530772
H        1.85117937       8.81092418       3.24898851       0.00462360      -0.01524073      -0.00611935
H        2.09076659       7.04410239       3.50431511       0.00463260      -0.02005448      -0.00443644
H        3.31428613       8.01181068       2.62575049      -0.01274617      -0.02275194      -0.00207570
H        4.98149101       6.74613426       4.33527027      -0.01496898       0.00262459       0.01951124
H        3.58093837       6.03459537       5.19455435       0.00363863       0.00766490      -0.00581247
H        4.83827560       6.92580244       6.10073710      -0.00227439       0.00470070      -0.00772928
S       16.50551062       2.28980408       0.09204336      -0.01110761      -0.01575569       0.00381519
O       16.75088264       2.16750045       1.56211087       0.00600270      -0.00846492       0.00074817
C       15.62069391       3.83298536      -0.15143729       0.01123667      -0.01391784      -0.00313844
C       15.13019851       1.19760357      -0.27587034      -0.00621815       0.00518427      -0.00071389
H       15.20579765       3.85774381      -1.15626881      -0.00364249      -0.00819087       0.00074542
H       16.34051325       4.63841611      -0.02203139      -0.00713253       0.03179202       0.00379333
H       14.83398702       3.89658741       0.59864403       0.00079148      -0.00234004      -0.00216724
H       14.86553625       1.31808068      -1.32294171       0.00045454       0.00262607      -0.00302189
H       14.29776363       1.44265530       0.38096994       0.00641606      -0.00021003       0.00149047
H       15.47520913       0.18524187      -0.08413328      -0.00064774       0.00393501       0.00346154
S        9.98689745      18.51659407       7.17071235      -0.00034246       0.00326518      -0.01137509
O        8.81964397      19.43994539       6.94704206      -0.00391560       0.00476404       0.01370417
C       11.05043158      18.64615547       5.73317358      -0.00385125      -0.00120322       0.00398714
C        9.37692691      16.86060264       6.83863578      -0.00326594       0.00005665       0.00526505
H       11.50502458      19.63129557       5.76198825      -0.00857128      -0.00461115      -0.00181358
H       10.45875538      18.52931677       4.82944524       0.00971849      -0.00101348       0.00446220
H       11.80720635      17.87134607       5.83073627      -0.00204768       0.00114074      -0.00721361
H       10.23002573      16.18958081       6.84519957      -0.00355374      -0.00639933       0.00021795
H        8.85550062      16.83786315       5.88363022       0.00720449       0.00822479       0.00207669
H        8.69591862      16.60604068       7.64653422      -0.01046064       0.00099530       0.00495910
S       10.11367921      13.58661603      12.58467826      -0.01663697       0.01493806       0.00330309
O       10.02372016      13.92856215      14.04207346       0.01022282       0.00413779       0.01360705
C       11.85846932      13.43773851      12.19555771      -0.01614015       0.00451679      -0.00659444
C        9.82157440      15.11797259      11.69195624       0.00695497       0.00127195       0.01007812
H       12.24311126      12.58518753      12.75046936       0.00522179       0.00590874      -0.01227201
H       12.37269244      14.35306276      12.48335589      -0.00088322       0.00283121      -0.01083843
H       11.97077115      13.25952361      11.12802404       0.01659731       0.01147747      -0.00140787
H        9.88616681      14.93564188      10.62209805       0.01158510      -0.01132464       0.00157482
H       10.53436737      15.88188070      11.98452629       0.00939252       0.00330489       0.00435981
H        8.82184890      15.45819858      11.94754900       0.00959144      -0.01709597       0.00151071
S       12.61875518       3.07857459       2.71793739       0.02087452      -0.00510382      -0.00009622
O       12.90379990       4.44816357       3.30893643      -0.01543917      -0.00401165       0.00370356
C       11.00880288       2.59422360       3.32581808       0.01116614       0.00632477      -0.00715640
C       13.58088250       1.87519002       3.63921654      -0.00447479       0.00438804       0.00011974
H       10.27771988       3.21661667       2.81573537      -0.00609069      -0.00124991       0.00018388
H       10.98252988       2.74094037       4.40376436      -0.00805523       0.00258690      -0.00474555
H       10.85162040       1.54769312       3.07582957       0.00663535       0.00242124       0.00248404
H       13.21331050       0.88704410       3.36983567       0.00452797       0.00476251      -0.00098274
H       13.46424488       2.04186670       4.70635653      -0.00849614       0.00886293      -0.00500099
H       14.62595394       1.97191148       3.35042526      -0.00657126      -0.00375062      -0.00736779
S        4.33714857      19.06895325       4.83507582       0.01594831      -0.01344067       0.00161413
O        4.93941422      19.45022721       3.50770303      -0.00711893       0.00204259       0.00417300
C        5.71038484      18.65614259       5.91152599       0.00725268       0.00796803       0.00653920
C        3.69918741      17.40028696       4.65529652      -0.00299455       0.01231500      -0.01284184
H        6.23979317      19.57303973       6.14836161      -0.00058900       0.00999990       0.01313330
H        6.37350114      17.97222243       5.38417582      -0.01225414      -0.00606602       0.00952094
H        5.31744507      18.20874507       6.82148272       0.00653073       0.00220559      -0.00176056
H        3.33826486      17.07673506       5.62745412       0.00411167      -0.00028714       0.00131645
H        4.47718977      16.73510278       4.29252752      -0.00079508       0.00643675       0.00883335
H        2.88225744      17.42406073       3.94110607      -0.01672969       0.00046821      -0.01169662
S        8.07583497      10.46412638       5.63498768      -0.00968891       0.00829158      -0.02141200
O        8.92697068      10.37303851       4.40072650       0.00055631      -0.01226254       0.02530041
C        7.11334401       8.94637172       5.68075944       0.00110801       0.00416286      -0.00813569
C        6.73471082      11.58547282       5.25733173       0.01393762       0.00842936      -0.00292983
H        7.82739644       8.13105702       5.64350120      -0.00030817      -0.00200922      -0.00695236
H        6.45170253       8.91594797       4.81949922      -0.00035533      -0.00622604      -0.01276395
H        6.55145908       8.89045608       6.60819367       0.00063116       0.00868898       0.01180550
H        6.06157015      11.63054900       6.11141668      -0.01400955       0.00576437       0.00152019
H        6.22384115      11.24655258       4.35880371       0.00466139      -0.00992748       0.01597723
H        7.18072157      12.56364372       5.08743333      -0.00082725       0.01348722       0.01303262
S        2.59115904      17.67646151       8.55723992       0.00883155       0.01231046      -0.00381516
O        3.85944794      17.03102407       8.06507530      -0.00103829      -0.00776320      -0.01144188
C        3.08631343      19.22008848       9.32806326      -0.00271846      -0.00931146       0.00360374
C        2.11653060      16.79182223      10.04030756       0.00124161       0.01812796      -0.00171244
H        3.49101949      19.86482871       8.54953910      -0.01756102      -0.00988034       0.01266347
H        3.81980740      19.01225596      10.10376658      -0.00713992       0.00696332      -0.00338698
H        2.20638975      19.66703568       9.78729290       0.01722826       0.00216838      -0.00148293
H        1.28161114      17.31469005      10.49946694      -0.01198237      -0.00189315       0.00671652
H        2.95490352      16.71868298      10.72856152       0.00165818      -0.00432833      -0.02187920
H        1.80827670      15.79609327       9.73030147       0.00804525       0.01316956      -0.00230552
S       13.75060700      16.63268153       8.32279874       0.00694453      -0.00089037       0.00376614
O       12.50940090      16.41431142       7.50614969       0.01331134       0.00781337      -0.00637663
C       13.54036595      15.68072657       9.82565926       0.00231609       0.00048188      -0.00460147
C       13.57761035      18.25816410       9.06175600      -0.00185886       0.00690297       0.00524557
H       13.58350548      14.63394729       9.53349132       0.00066608      -0.00267427       0.00947599
H       12.57703492      15.93330947      10.26668232       0.00767049       0.00484031       0.00581774
H       14.35708976      15.92743772      10.49985413      -0.00397859      -0.00535393       0.00561379
H       14.34474328      18.38519917       9.82462436       0.00879147       0.01361469       0.00528524
H       12.57500522      18.34791396       9.47390346      -0.01200888      -0.00591959       0.00518616
H       13.71393078      18.99356889       8.27320676      -0.01416148      -0.00945532      -0.01733800
S        0.85569017      17.19072711      14.91114522       0.02875912      -0.00777977      -0.00363754
O        0.03917266      16.19164632      15.68390578       0.00484818       0.01964852       0.01882208
C        0.18071226      17.24568810      13.25631829      -0.00147220      -0.00687325      -0.00406614
C        2.39933521      16.38098693      14.48551709       0.01717816      -0.01025771      -0.00038957
H       -0.79778145      17.71163053      13.30643371      -0.00926128       0.00564600      -0.01353073
H        0.11206295      16.23095674      12.86999828       0.00439876      -0.00893295       0.00910934
H        0.84038872      17.86142181      12.65065372       0.00260308      -0.00842196      -0.00755587
H        2.96517830      17.02885056      13.82067325       0.00292509      -0.00131008      -0.00621682
H        2.19150126      15.42968937      14.00203120      -0.00728234       0.00182332      -0.00218394
H        2.93639044      16.22181366      15.41678119       0.01038003      -0.00181394       0.00237594
S       12.86810131       2.49265009      18.15789315       0.02989869      -0.00463755       0.03483704
O       14.36035083       2.69210477      18.06087539       0.01997810      -0.00228667      -0.01363439
C       12.15362048       3.12418501      16.64166958       0.00561933      -0.01259038       0.02531982
C       12.24299085       3.76271306      19.25902886      -0.03190780       0.00476845      -0.01652036
H       12.50935074       2.48134118      15.83942271      -0.02400735       0.01471711      -0.00712088
H       12.45728720       4.15487657      16.47680480       0.01623712       0.01652201      -0.01416040
H       11.07307328       3.04587184      16.73996442      -0.01760849      -0.01024385      -0.02416954
H       11.15633135       3.75291848      19.19767149       0.00794215       0.00398721       0.02758224
H       12.66107477       4.72579087      18.97091006       0.01415545      -0.00374079       0.00594546
H       12.54322737       3.50181533      20.27253469      -0.01316163       0.00373226      -0.03099700
S       13.53154135       4.77389200       9.61522272      -0.00371151      -0.02853339       0.00355409
O       13.82981484       4.40767564       8.19232136      -0.00616917      -0.00786685       0.01315003
C       11.76561266       5.13787959       9.66500546       0.00561675       0.00472145       0.00592124
C       14.15061923       6.44513691       9.82177432       0.00353189      -0.00593669      -0.00141419