708
Lattice="19.08 0.0 0.0 0.0 19.08 0.0 0.0 0.0 19.08" Properties=species:S:1:pos:R:3:forces:R:3 energy=-1046649.5825629781 free_energy=-1046649.5825629781 stress="-0.004556803600406942 0.00024323510486851723 0.00030716670981579484 0.00024323510486851723 -0.005300185073021931 -0.0004948426472121305 0.00030716670981579484 -0.0004948426472121305 -0.005484540091760797" pbc="T T T"
C       15.73580064      11.08267110       8.69084463      -0.00003068       0.02047945      -0.00065644
C       14.64707208      10.37516374       8.18507342       0.00376931       0.00332080       0.00191319
C       13.56318145      10.10310637       9.04754103      -0.00867997       0.01526834      -0.00320280
C       13.64218160      10.51737647      10.38326502      -0.00979310       0.01027705      -0.00711913
C       14.72668776      11.21069026      10.86581315      -0.00884834      -0.00634386       0.00555507
C       15.77978599      11.49906457       9.99901502      -0.00508874      -0.00503881       0.01162167
H       16.56536621      11.30588491       8.03752712      -0.00041769       0.01971048      -0.01668942
H       12.81184179      10.26856729      11.02568757       0.00256232       0.01149118      -0.00625008
H       14.74501215      11.53169084      11.89300901      -0.00462011      -0.00689300       0.00090039
H       16.64637246      12.03470409      10.35138789       0.00292324      -0.01112296      -0.00547473
N       12.38210526       9.40831323       8.73599070       0.00160282      -0.01008319       0.00837252
N       12.24760444       8.96010191       7.57527236       0.01617702      -0.01392860       0.00656997
C       11.06259510       8.19956260       7.37908308       0.00567239       0.00650537      -0.00439457
C       11.05449497       7.36027385       6.27202613       0.00163946       0.00515880      -0.00280150
C        9.96467672       8.23802796       8.23440461       0.00140031       0.01201696      -0.00670997
C        9.96866047       6.55471970       6.00119646       0.00651526      -0.00153390      -0.00842130
H       11.91730708       7.30001367       5.63774428       0.00062660       0.00932718      -0.00187402
C        8.88549934       7.41112516       8.00204444       0.00111516       0.00342367       0.00298304
H        9.94783740       8.93826536       9.05346004       0.01327628      -0.02031132       0.02376130
C        8.91014006       6.58775443       6.88575467       0.00822379       0.00464154      -0.00446317
H        9.97018969       5.89128896       5.15283256       0.01254431      -0.01914452       0.00080376
H        8.02397952       7.42025129       8.65133374      -0.02043674       0.02050540      -0.02316183
N       14.68782200       9.90494010       6.88484752      -0.00377300      -0.00933643       0.00142401
H       15.14973622      10.51629518       6.23476834      -0.00567055      -0.00125734       0.00053883
H       13.78060420       9.58267483       6.59168030      -0.00578992       0.00170892      -0.01499542
N        7.76916533       5.70637822       6.63357874       0.00243351       0.00010537       0.00531273
O        6.99189682       5.51585492       7.54619767       0.00905829       0.00016427       0.00033081
O        7.66036341       5.21914983       5.52306728      -0.00328407      -0.00188607      -0.00404606
S        7.53354391       9.38281600      17.76532772      -0.01426764      -0.01252610       0.00177216
O        8.41308513       8.29316500      18.34735257      -0.00527908      -0.01491265      -0.00616347
C        7.76226056      10.81195364      18.80693321      -0.00399114       0.00491577       0.00346618
C        5.85416452       9.01395287      18.25107116       0.00552005      -0.00392803       0.00457973
H        8.76184519      11.19773679      18.62004338      -0.00556411       0.00416664       0.00487321
H        7.61938985      10.51927067      19.84613785      -0.00497642      -0.00519325       0.00410617
H        7.02389118      11.54655459      18.50012968       0.01534199       0.01203319       0.01198453
H        5.26438388       9.88163589      17.97683270      -0.00507778       0.01689233      -0.01249433
H        5.80720012       8.84267610      19.32408552      -0.00221728       0.00056530       0.00006679
H        5.51040215       8.15582656      17.67908642       0.00545828      -0.01217741       0.00450914
S       10.75156461       6.75927228      15.75400047       0.00565093       0.01943664      -0.00779366
O       11.45070806       6.17654887      14.54292423      -0.00401567      -0.00269116       0.00231643
C        9.03843310       6.26472911      15.66315571      -0.00232511       0.00017959      -0.00206051
C       10.46745345       8.49871442      15.45357318      -0.00407402      -0.00362586       0.00536543
H        8.99980462       5.20167410      15.87381207      -0.01271685      -0.00409451      -0.00253113
H        8.63166924       6.48339758      14.67811219      -0.00347128      -0.00797136      -0.00773490
H        8.51725855       6.80429386      16.44949051      -0.01301867      -0.00265106      -0.00595770
H        9.94915944       8.88760652      16.32684194       0.00540445       0.00183458       0.00223455
H        9.85098779       8.63119081      14.56499741       0.00569330       0.00075412       0.01282396
H       11.42494517       9.00535620      15.36891715      -0.01122597      -0.01080145       0.00727404
S       15.92875732       0.87675533       8.50081010       0.01662608      -0.01142664       0.00388893
O       15.65354391       1.15791915       9.95434209      -0.00937470      -0.01101630      -0.00051156
C       17.52048972       1.59202259       8.14263794      -0.00441855      -0.00517346      -0.00034053
C       14.98834874       2.06057425       7.54331625       0.00970440      -0.00408711      -0.00111141
H       18.28314425       0.98054290       8.61547815      -0.00378023       0.00258471      -0.00950056
H       17.53520014       2.61452761       8.51494212       0.01212095      -0.01246066      -0.00336513
H       17.65890262       1.58044146       7.06842731       0.00430520      -0.00647488       0.00718879
H       15.34132822       2.00876542       6.51422182       0.00085350       0.00472764      -0.01259956
H       15.14179837       3.04971215       7.96894179       0.00156765       0.00517935       0.00111238
H       13.94004574       1.77658128       7.59053162      -0.00229507       0.00185471      -0.00250063
S       17.33643045      15.65319690      11.93317568      -0.01518785       0.00801386      -0.00157133
O       17.00957302      16.50028421      10.73465619      -0.00232519      -0.00588454      -0.01719803
C       18.80080187      14.71240714      11.53342324       0.00846763       0.00062901      -0.00028046
C       16.18163442      14.29398156      11.89441163      -0.01384155      -0.01288865       0.00674367
H       19.64497994      15.39558100      11.54502533       0.00915681      -0.00049213       0.00221083
H       18.68523959      14.25412490      10.55216900       0.00900927      -0.00515220      -0.00265171
H       18.91091482      13.95337326      12.30498869      -0.00144631      -0.00952074       0.00648923
H       16.50700859      13.49543038      12.55550070       0.00090672      -0.00980925       0.00415732
H       16.10455340      13.94655626      10.86930683       0.00274807       0.01139824      -0.00458211
H       15.22254014      14.67890167      12.22733609       0.00001394       0.00049559      -0.00294031
S       17.81291894       7.47338416       9.62416215      -0.00287144       0.00352730      -0.00672313
O       17.33165459       6.07122523       9.46644080       0.00955126      -0.00074707      -0.00662160
C       16.63606804       8.36933717      10.64879488      -0.00439508       0.00334390       0.00395413
C       17.49313838       8.32623715       8.07832881       0.00213911      -0.00336086       0.00537571
H       16.53050421       7.78567363      11.55855419       0.00652125      -0.00727134       0.00109546
H       15.67279977       8.49004032      10.16465979      -0.00057717      -0.00140141      -0.00842190
H       17.03870047       9.34721750      10.89422999       0.00647076       0.00332750       0.00132346
H       17.70200427       9.38051269       8.21321459      -0.00203158      -0.00523073      -0.00220324
H       16.46320298       8.18256014       7.76240681       0.01021248       0.01025056       0.00134474
H       18.18184365       7.91933815       7.34412847      -0.00274867       0.01097666       0.00186274
S       15.74646541       6.93801893       1.73220808      -0.00766016      -0.01078690       0.01432756
O       16.59349137       5.77887538       1.30994445       0.00080678       0.00030345       0.00015222
C       14.03145518       6.53913004       1.35119235       0.00627033       0.00452233       0.00213780
C       15.97320160       8.22737991       0.52222690      -0.01169908      -0.00781322       0.00180631
H       13.71553787       5.72777935       2.00340567       0.01028071       0.01268911       0.01739375
H       13.95160186       6.25756161       0.30409882       0.00308104      -0.02072058      -0.03861370
H       13.43864718       7.43002607       1.54146673       0.00679973      -0.00346882       0.02343801
H       15.54105199       9.13988125       0.91669682      -0.00892521      -0.00344548      -0.01025940
H       15.50711984       7.94682237      -0.41677880       0.00605728       0.01311210      -0.01667210
H       17.04976155       8.33054283       0.41987547      -0.00604018      -0.00050970       0.00220831
S       18.88093738      16.58213597       3.07471852      -0.02276751      -0.01047444      -0.00366239
O       18.22763265      17.41627300       4.13356335      -0.01123093       0.01130086       0.01501585
C       17.97274485      16.86831689       1.55503082      -0.00392009       0.00776199      -0.00978007
C       18.27935216      14.92478497       3.36307186      -0.00165222      -0.03983436       0.01414681
H       18.03828193      17.92705630       1.32324159       0.00849954       0.01252215       0.00794945
H       16.93598693      16.56432009       1.67735229       0.00015546      -0.00054826      -0.00704413
H       18.45768016      16.29130651       0.77032444       0.00266770      -0.00761605       0.00397140
H       18.53477239      14.26330238       2.54060285       0.00629328       0.00444464      -0.00015002
H       17.20476405      14.97949495       3.53047441       0.02437328       0.02852493      -0.00345458
H       18.78093321      14.56851335       4.25222161       0.01281221      -0.00495324       0.01579199
S       17.65008470      10.41510373       2.81945514      -0.00344980      -0.00042901       0.01086943
O       18.13937123      11.78253569       2.48819871      -0.00127998       0.00681761      -0.00665376
C       16.93120403      10.54101359       4.45998987      -0.00027142      -0.00176828       0.00058176
C       19.06913310       9.40099088       3.24604478      -0.00176239      -0.00315543       0.00741666
H       16.05027677      11.17096193       4.35562788       0.00322100       0.00473553       0.00382753
H       17.63272075      11.01642794       5.13612123       0.00355832      -0.00819690       0.00058539
H       16.65807695       9.55358855       4.82527251      -0.00106749      -0.00574486       0.00062841
H       18.71338325       8.43413318       3.59606296       0.00084722      -0.00629235       0.01021959
H       19.70436100       9.89559486       3.98324980      -0.00263837       0.00095477       0.00478622
H       19.62757295       9.25859611       2.32234255      -0.00298460       0.00574831      -0.00006529
S        6.51951884      16.50611121      11.39709678       0.00036354       0.01278559      -0.00264661
O        5.38679062      15.99157727      12.24102663       0.00396232      -0.00379288      -0.00011276
C        5.81364319      16.93689164       9.81540483       0.00086569       0.00928739      -0.00076187
C        7.45795055      15.10571438      10.77658139       0.00009624       0.00332822       0.00737142
H        5.23401280      17.84364985       9.91957163       0.01588864       0.00954121       0.00571487
H        5.17937135      16.11023790       9.50444136       0.00373254       0.01068895      -0.00508405
H        6.62707374      17.12326042       9.12053734      -0.01285137       0.00948822      -0.00539161
H        8.24938037      15.51833232      10.16039919       0.00217508      -0.00271366       0.00098288
H        6.82342334      14.44935805      10.18926637      -0.00085306       0.01322739      -0.00181461
H        7.86643837      14.56954778      11.63124169       0.00845538      -0.01095360      -0.00373731
S        3.04544610      13.52896120       2.30269124      -0.01589837      -0.02223795       0.00511266
O        2.28942602      14.38601426       3.27682815      -0.00480197       0.00134927       0.00499362
C        2.07058398      12.06066926       1.99251367       0.00371828       0.00387981      -0.00254031
C        4.35983541      12.72618473       3.22373494       0.00372128      -0.00520695       0.00031589
H        1.19553598      12.35525922       1.42279294       0.00782539      -0.00743369       0.01119386
H        1.79009802      11.60791631       2.93951097       0.01350488       0.01994821      -0.01427042
H        2.67420477      11.37698913       1.40060838      -0.01531935      -0.00406769       0.00498738
H        4.83028783      11.97029576       2.59762183       0.00874045      -0.00434961       0.00040457
H        3.95034219      12.25675799       4.11636984      -0.00301789       0.00652602       0.00041656
H        5.09046821      13.49235961       3.47018165       0.00123723      -0.00509117       0.00863993
S        9.54347319      18.96065880      10.29474959       0.00138595       0.00591833      -0.00931571
O        9.20580437      17.55941597       9.86968395      -0.00784675       0.00812595      -0.00565146
C        9.66729182      18.96125720      12.07437954       0.00422916      -0.00740632      -0.00772867
C        8.02795904      19.89676241      10.20079470       0.00588878      -0.00134654       0.00925107
H       10.49291841      18.31991908      12.36162608       0.00515186      -0.00039474       0.00456561
H        8.72640879      18.61156235      12.48913756       0.00838936      -0.00096205       0.01254072
H        9.85629889      19.98381383      12.38744307       0.00505926      -0.01192689      -0.00009642
H        8.20070919      20.87592199      10.64071197       0.00275100       0.00088035      -0.00925898
H        7.27418234      19.36044210      10.76721464      -0.00263583       0.00942562      -0.00240059
H        7.72890182      19.96325558       9.15961063       0.00480774      -0.01172940       0.01512498
S        3.48702181       7.38144810      14.97077723       0.02578887       0.00322818       0.00953137
O        3.09748969       7.63683180      16.39390985      -0.00740434       0.00031591       0.00784876
C        2.98064995       5.70152499      14.58426835       0.00255730      -0.00519389      -0.00302767
C        5.26709428       7.13430830      14.93599132       0.00125115       0.00387410      -0.00096363
H        1.89947817       5.68248016      14.69381001      -0.00450729       0.00054333      -0.00767106
H        3.43956725       4.98998596      15.26568532       0.01119701      -0.00579232       0.00772700
H        3.25456803       5.47959212      13.55542465       0.01404545       0.00237183      -0.01135058
H        5.57839548       6.75108585      13.96936977       0.00277606       0.00090823       0.00795213
H        5.54573895       6.43762712      15.72252716      -0.00813827       0.00237940      -0.01034952
H        5.73971390       8.10226860      15.09342695      -0.00456176       0.00088215      -0.00263021
S        6.88617545       8.57053355       3.21197371      -0.00858429      -0.00438670       0.00354645
O        6.18454226       9.69007458       2.49477124       0.00676293      -0.00769472      -0.00315745
C        8.62708669       8.97252870       3.26252125      -0.00255368      -0.00463643      -0.00806040
C        7.02384479       7.20179478       2.07177544      -0.00577292       0.00675778       0.00574844
H        8.78223061       9.78196701       3.97259318      -0.00250807      -0.01224841      -0.00106543
H        8.95936520       9.24572261       2.26327171      -0.00105970       0.00295122       0.00177783
H        9.15866029       8.09289950       3.61963337       0.00115195      -0.00637889      -0.00522523
H        7.62498626       6.41134019       2.51837180      -0.01056856       0.00279504      -0.00044712
H        7.47554477       7.53891732       1.13875831      -0.00040596      -0.00612919       0.00129280
H        6.01668664       6.83080362       1.89465491       0.00147427       0.00197483      -0.01109744
S        4.75503247       3.24691937       2.93262012      -0.00284959      -0.00290947      -0.01011645
O        3.61901773       2.52225646       3.57247077       0.00475225       0.00695489      -0.00308860
C        6.30612730       2.57152616       3.54028711      -0.00353799       0.01047447       0.00207669
C        4.92582563       4.81589397       3.77964207       0.00560819      -0.00822346      -0.00139469
H        6.34192956       1.52283833       3.26647703       0.00448302       0.00494263       0.00813221
H        6.38271265       2.69982155       4.61482994      -0.01715796      -0.00332514       0.01405228
H        7.11221105       3.10723492       3.04167110       0.01113306       0.00370153      -0.01444514
H        5.86953466       5.26863566       3.49777066       0.00963567       0.01012484      -0.00024615
H        4.88842963       4.64842869       4.85117793       0.00190418       0.00031675       0.01248435
H        4.09016351       5.44107153       3.48567100      -0.00117098       0.00818721       0.00147169
S        3.84700233       8.58529988       6.11401204      -0.00752138      -0.00453329       0.00210810
O        2.76083210       8.35426923       7.13935161      -0.01467311       0.01336796      -0.00137852
C        3.23378522       7.94725535       4.56701207       0.00411792      -0.00542013       0.00847882
C        5.07423769       7.31902082       6.39532088       0.00639374       0.00126340      -0.00097335
H        2.37230659       8.53841247       4.28421615       0.00672322      -0.00757995       0.01133403
H        2.98107290       6.89902333       4.70534855      -0.00416256      -0.00208459      -0.01298328
H        4.01512310       8.08150604       3.82073352      -0.01086966      -0.00202522      -0.00735087
H        5.81871974       7.41040929       5.60921350       0.00992004      -0.00119116      -0.00034572
H        4.60857062       6.33764434       6.37543914      -0.00226324       0.00713211       0.00955150
H        5.52697376       7.51628885       7.36198217       0.00193034      -0.00222880       0.00015429
S       15.50864520       2.00897848      -0.25262376      -0.00878183      -0.00827892       0.01196965
O       16.99618951       2.13746018      -0.09816022       0.00591591      -0.02180745      -0.01483596
C       14.76885454       3.21021648       0.84587711      -0.00792664       0.00517415       0.00241240
C       15.01443228       0.59501885       0.70525390      -0.00992187      -0.01526612       0.00403106
H       15.02304481       4.20046172       0.48535480      -0.00014005      -0.00179533      -0.00704739
H       15.18556899       3.06718303       1.84069796      -0.00545483      -0.00031433      -0.00396829
H       13.69213986       3.04927492       0.83560244      -0.00075508       0.01022513       0.01842858
H       13.92733645       0.55951330       0.71722681      -0.00307359      -0.01049544      -0.00088575
H       15.40669084       0.71249037       1.71588935       0.00137590      -0.00345145      -0.01321971
H       15.42469393      -0.29170063       0.23554569       0.00570134       0.00471008      -0.01037011
S        9.88903682      18.50154822       6.88421246       0.00308020       0.00217717       0.00097991
O        9.02890387      19.60013049       6.28901047       0.00218705      -0.00120004      -0.01088799
C       11.12566621      18.05981814       5.67386875      -0.00740782       0.00580184       0.00771856
C        8.93570565      16.99273676       6.77145439      -0.00769442      -0.00753712       0.00165425
H       11.88098733      18.83748919       5.67169797      -0.00576386      -0.00761800      -0.00803245
H       10.67288899      17.98021113       4.69215684       0.00441022       0.00280005       0.00717371
H       11.55384674      17.11070993       5.98906905      -0.01380368       0.01150563      -0.00366210
H        9.56057406      16.19057373       7.15150914      -0.00353924      -0.00646975      -0.00045570
H        8.62040106      16.81409975       5.74571538       0.00411816       0.00063912      -0.01678356
H        8.07801852      17.12456546       7.42244651       0.00241017       0.00900795       0.01174316
S       10.62333101      13.71095042      11.72434357       0.01437362       0.01161142       0.00571520
O       10.27309791      13.62821257      13.17980459      -0.01041224      -0.00809034       0.00229555
C       12.34028387      13.22222279      11.56617796       0.01155576      -0.00590604      -0.00793297
C       10.86613921      15.44706199      11.35513669       0.00062447       0.00406192      -0.00853382
H       12.45755525      12.26671797      12.06905695       0.00190311      -0.00655133      -0.00353195
H       13.00297881      13.95117464      12.02666911      -0.00985498       0.00115575       0.00340990
H       12.58097956      13.12560990      10.51045731       0.00254090      -0.00194078      -0.01427678
H       11.21468244      15.56183455      10.32988083       0.00521807       0.00074266      -0.01497125
H       11.56277786      15.86499949      12.07879224      -0.00071390      -0.00339034      -0.00243900
H        9.91169633      15.95390724      11.42857590       0.00208852       0.00942174       0.00124423
S       11.74519222       3.50364101       3.23698687       0.00778292       0.01242073      -0.00039497
O       12.07967689       4.58822135       4.23335519       0.00082926       0.00401619      -0.00057173
C       10.10995393       2.87522254       3.62048810      -0.01115292      -0.00815455      -0.00516167
C       12.68298058       2.03586111       3.66380514      -0.00060254       0.00259845      -0.00350393
H        9.47865097       3.74228592       3.78762709       0.00688768       0.00819573       0.00171333
H       10.11023056       2.21721979       4.48478283      -0.00345459      -0.00236514       0.01064493
H        9.75994705       2.36458539       2.72928177      -0.00940425      -0.01340133      -0.01701700
H       12.33112089       1.23211571       3.01979436       0.00147954       0.00103284      -0.00534464
H       12.52791917       1.79206525       4.71466386      -0.00138878      -0.00165079      -0.00079522
H       13.73642712       2.21998185       3.46425051       0.00119522       0.00175244      -0.00486621
S        4.68815998      18.40093923       3.92148124      -0.01279557       0.02588253      -0.01598697
O        5.48544302      18.34233453       2.64202318      -0.00121787      -0.01222843       0.00613082
C        5.87035550      18.11395077       5.24218773       0.00489018       0.00969852      -0.00696756
C        3.83333601      16.84579160       4.06566721      -0.01205833      -0.00115671      -0.00047805
H        6.55106303      18.95988776       5.28982193       0.01773334       0.00903295       0.01399795
H        6.43119378      17.21150779       5.01637746       0.00694917      -0.01211047      -0.00021024
H        5.32852089      18.04101921       6.18437572       0.00114469      -0.00418303       0.00139062
H        3.29767095      16.85057249       5.01051341      -0.01403850       0.00638511       0.01015319
H        4.53878475      16.02038622       4.00486739       0.00608430      -0.02189875      -0.00331049
H        3.11974117      16.77949718       3.25315499      -0.01127289       0.00678530      -0.01493377
S        7.94418691      11.43714208       6.54286724      -0.00771838       0.00451520      -0.00229103
O        9.21643211      10.83064507       5.98709805      -0.01182646       0.00048477       0.00433515
C        6.98812708      10.05733144       7.12962774      -0.00244260       0.00470232       0.00783477
C        6.88598945      11.86331116       5.16337460      -0.00707886      -0.00016524       0.00296260
H        7.44962749       9.68707615       8.03700010      -0.00350370       0.00468362       0.00754096
H        6.99541525       9.28575521       6.36239978       0.00039197       0.01473665      -0.00147146
H        5.97779461      10.39277067       7.33294825      -0.00021642       0.01261043       0.00246617
H        5.90003330      12.03400549       5.58315693      -0.00390214      -0.01011776       0.00613789
H        6.85649425      11.06074424       4.42942945       0.00068437       0.00001313       0.01111384
H        7.25045294      12.78129224       4.70843705      -0.00116570      -0.00648757      -0.00449420
S        1.50634633      18.12192556       8.08411977       0.00871799       0.01850905      -0.00430207
O        2.45464142      17.92221925       6.92761834       0.00552104      -0.00644997      -0.01593526
C        2.30994161      19.24875470       9.22208697       0.00044104      -0.00201213      -0.00014510
C        1.63386096      16.69896490       9.15025162      -0.00941657       0.00738856      -0.00294045
H        2.20149809      20.26596943       8.85467885      -0.00648370       0.01755682       0.00504565
H        3.36205276      18.97727700       9.26649752      -0.00697753      -0.01085231      -0.01862053
H        1.83521771      19.15056933      10.19483438       0.00846312      -0.03079058       0.01340304
H        1.04288370      16.91911490      10.03637045      -0.00088772      -0.01273240      -0.00444194
H        2.67133255      16.51337698       9.41624488      -0.01547438      -0.00592814      -0.01081925
H        1.22721737      15.83073303       8.64324830      -0.00244335      -0.00362515       0.00999108
S       13.27396641      16.51649884       8.24997318       0.01699157       0.00515117      -0.00383880
O       11.89475740      15.92750964       8.18259707      -0.00306647       0.00347946      -0.00099781
C       14.08778004      15.70254967       9.61536790       0.00331342       0.00656087      -0.00770605
C       13.02774000      18.11551934       9.02056083      -0.00225037       0.00240597       0.00303668
H       14.23752142      14.67228200       9.30536041      -0.00407793       0.00727654       0.01566269
H       13.43063125      15.74739319      10.47920040       0.01337326      -0.00779044      -0.01077701
H       15.04470304      16.18139587       9.81983045      -0.00802899      -0.00072863       0.00077954
H       13.92166628      18.45017678       9.54425630      -0.01285788       0.00083356      -0.00148850
H       12.18780310      17.98540862       9.70167989      -0.00068507       0.01377316      -0.00655601
H       12.74607401      18.83942416       8.25997231      -0.00063096      -0.01114743       0.00580036
S        2.75316906      16.88810182      15.74827890       0.01545773      -0.02984782      -0.01026154
O        1.92344530      16.06099955      16.70747959       0.00122478       0.00945383       0.00742884
C        1.92137924      16.81204785      14.15620655       0.01812659       0.00916133      -0.00619770
C        4.13484293      15.86747878      15.27895745       0.00392605      -0.00828537      -0.00637767
H        1.12091014      17.53856644      14.10044307      -0.00575070      -0.00842582      -0.00422415
H        1.52179945      15.80788424      14.03964446      -0.00722367      -0.01114994       0.00574728
H        2.64934428      17.02250837      13.37775690       0.01362324       0.01322665       0.00521628
H        4.67942752      16.36586805      14.48315549      -0.01591049       0.00881432      -0.00579891
H        3.75113872      14.90770036      14.94452230      -0.00096763       0.00174451      -0.00138305
H        4.77006739      15.72204483      16.14865054      -0.01457379      -0.00328847       0.00413260
S       11.46832196       0.76783346      18.00574171      -0.02524608       0.01578761      -0.00580267
O       11.94774376       1.40304847      19.27173878       0.01660497      -0.00713032      -0.00968794
C       12.39231958      -0.75952592      17.80029655       0.00077123       0.00768080       0.00214137
C       12.27718565       1.65413650      16.66608088       0.00119227       0.01007156      -0.00544609
H       12.16155515      -1.39746702      18.64940872      -0.00686459      -0.01202322       0.00601543
H       13.45596103      -0.53610687      17.77548883       0.01439957      -0.00072592       0.01193819
H       12.06447654      -1.22915325      16.87731394       0.02146455       0.00148730       0.00179051
H       12.06191270       1.14841833      15.72864546      -0.00270295      -0.02174122       0.01328190
H       13.34553732       1.67968365      16.86870224       0.00412419      -0.00781047      -0.01273026
H       11.87699896       2.66297998      16.64614366      -0.00342271       0.01351869       0.01179115
S       14.34398302       5.85525762      10.13629639       0.02555893       0.00078359       0.00288008
O       14.34453383       4.36712359      10.06459978       0.00804560       0.00754130      -0.00903254
C       12.67532468       6.39723006      10.46648752       0.00586376      -0.00219370      -0.00044764
C       14.41397873       6.49066584       8.45903662       0.00433012      -0.00116112      -0.00510808