708
Lattice="20.28 0.0 0.0 0.0 20.28 0.0 0.0 0.0 20.28" Properties=species:S:1:pos:R:3:forces:R:3 energy=-1046650.0876086287 free_energy=-1046650.0876086287 stress="0.0003622209237993735 -2.8638062780895137e-06 -0.00015913302950325232 -2.8638062780895137e-06 0.00022122256655015247 -4.7409856307925704e-05 -0.00015913302950325232 -4.7409856307925704e-05 1.7791745570411368e-05" pbc="T T T"
C       15.14854330      11.20887079       8.28007060       0.01766609       0.02142066       0.01761440
C       14.05171872      10.43779906       7.89760920       0.02520490       0.01300305       0.01022747
C       13.00078818      10.25009045       8.82864225       0.00214290       0.02665123      -0.02029350
C       13.10191862      10.84731408      10.09263793      -0.01639693      -0.01143775      -0.00537731
C       14.18990215      11.61107611      10.44912193      -0.02242858      -0.01482837       0.00205223
C       15.22079617      11.78833345       9.52716891      -0.01042020       0.00129532       0.02721026
H       15.96060794      11.34615475       7.57931308       0.00129735       0.01216236      -0.00367844
H       12.29176092      10.68623499      10.78400878       0.00784746       0.01467155       0.02291532
H       14.24514662      12.03684294      11.43809743       0.01615858       0.01080348      -0.02206282
H       16.10155192      12.35417197       9.79703971       0.00198002      -0.00639674      -0.01491139
N       11.83944188       9.47168531       8.63970166       0.01830357      -0.00445404      -0.00208407
N       11.64155404       9.00027730       7.49668114      -0.00955402      -0.00173838       0.00563787
C       10.52680623       8.13070736       7.37847895      -0.00151041      -0.00761243       0.00167400
C       10.53466044       7.32185239       6.24518227      -0.01067906       0.00796902      -0.00937762
C        9.52393378       7.98879134       8.33570523      -0.00286971       0.00071939      -0.00619132
C        9.58980851       6.33032527       6.07931205       0.01209334      -0.01115083       0.00701648
H       11.32533037       7.44171181       5.52472243      -0.01340481       0.00778719      -0.01675062
C        8.57993246       6.98757336       8.19479554       0.00767053      -0.00463448      -0.00169746
H        9.49970751       8.64630881       9.19054685       0.02229042      -0.01772051       0.00859763
C        8.63885889       6.17201683       7.07320966      -0.00070471      -0.00188912      -0.00186289
H        9.61370113       5.66807363       5.22748185       0.01330579       0.00062261       0.00302023
H        7.80697604       6.82958301       8.93363982      -0.01414838       0.03088641      -0.02621761
N       14.04442437       9.84067335       6.64783318      -0.01542211      -0.00247933       0.01705631
H       14.55143402      10.33978197       5.93811595      -0.00494037      -0.01531563       0.02203515
H       13.12575371       9.52313366       6.38621441      -0.01686318      -0.00487208       0.00014309
N        7.67907512       5.06300423       6.95122418      -0.01104856       0.00829802       0.00322089
O        6.86961137       4.90565765       7.84120171       0.00438530      -0.00301198       0.00828602
O        7.75840232       4.35364345       5.96590736      -0.00669879      -0.00401035       0.00655676
S        7.58127806       9.50217227      17.97623338       0.00680408       0.01318218      -0.01793969
O        8.31354947       8.48629019      18.82349604       0.00453569       0.00380899      -0.02764282
C        7.66798034      11.06304615      18.84735323       0.00425257       0.00863985       0.00843121
C        5.82547472       9.25198957      18.19105933       0.00767434      -0.00436423      -0.00012177
H        8.69706900      11.41501807      18.81626944       0.01218045      -0.00572803      -0.00113824
H        7.32507346      10.90758806      19.86875780      -0.00275695       0.00027541       0.01069959
H        7.00833004      11.76908732      18.34678172       0.00907874       0.00832858      -0.00689659
H        5.33667021      10.05935585      17.65240990      -0.01877406      -0.02335955       0.00388340
H        5.57468559       9.27906465      19.25074876      -0.00631872       0.00470513      -0.00267095
H        5.55201206       8.30590043      17.73452839      -0.00729453       0.00178546      -0.00070963
S       11.18996506       6.90745679      16.63705064       0.00945348       0.00691677       0.00181052
O       12.07565768       6.36053381      15.54159140       0.00664228       0.00050165       0.00248790
C        9.57414406       6.16564191      16.42729025      -0.00046230       0.00299814       0.00188873
C       10.71591132       8.55804340      16.12782954      -0.00222487       0.00464227      -0.00149578
H        9.65491970       5.11087772      16.67866177      -0.00742239      -0.00086633       0.00343606
H        9.22799409       6.29086975      15.40354722      -0.00557958       0.00642839      -0.00128422
H        8.90782977       6.65810746      17.13122168      -0.00053512       0.00516637       0.00401506
H       10.08510580       8.98539337      16.90126648       0.00018645      -0.00190414       0.00665968
H       10.17720465       8.51114832      15.18213771      -0.00601341       0.00257949      -0.00181436
H       11.61981366       9.15644106      16.04659402       0.00062590       0.00014178      -0.00524245
S       16.24144309       1.18488955       9.27339882      -0.00352090      -0.00031342      -0.00125495
O       15.87910651       1.64781753      10.65566137      -0.00098893       0.00335220      -0.00066891
C       17.67114936       2.13823634       8.76687799      -0.00256718      -0.00455811       0.00328742
C       15.09478930       1.95688367       8.11810833      -0.00570318       0.00053461       0.00077198
H       18.52735134       1.79465958       9.33889713       0.00165485       0.00679155       0.00084992
H       17.48432657       3.19625718       8.94253859      -0.00556432      -0.00624241      -0.00081239
H       17.83784160       1.96326467       7.70929873       0.01008640       0.00941502       0.00477561
H       15.50992616       1.85283681       7.11674596      -0.00744492      -0.00370267       0.00045895
H       14.97550609       2.99932178       8.40527341      -0.00802554       0.00267765      -0.00562221
H       14.13774167       1.44337589       8.16565905      -0.00699128       0.00169308       0.00595394
S       17.02394792      16.04586207      12.18348167      -0.00190184       0.00703582       0.00892530
O       16.27315811      17.11838843      11.43877448       0.00587335       0.00741535       0.00014185
C       18.46434610      15.64226860      11.19525912      -0.00912964      -0.00068396       0.00140588
C       16.12439814      14.52671150      11.87857544       0.00164700      -0.00104629      -0.00096988
H       19.11428869      16.51492727      11.21026126      -0.01328318       0.00133676       0.00544437
H       18.14940956      15.40021223      10.18286452       0.00394527      -0.00687583      -0.00415308
H       18.96264361      14.79239122      11.65825499      -0.00700527      -0.00620137      -0.00899253
H       16.60676648      13.69746240      12.38359299       0.00444244      -0.00525501      -0.00149765
H       16.07955173      14.34627643      10.80744048       0.00718666      -0.00318712      -0.00743597
H       15.12390902      14.66320594      12.27717539       0.00331778       0.00943336       0.00665137
S       17.81422482       7.85403792       9.22586896       0.00003949       0.00310632      -0.00087395
O       17.39186123       6.42309008       9.11630485       0.00304748       0.00105721       0.00676946
C       16.61107033       8.71976299      10.24512194       0.00496644      -0.00454697       0.00005326
C       17.35897804       8.63293588       7.67142728      -0.00331690       0.00707540      -0.00180218
H       16.64968423       8.26419215      11.23037469       0.00282145      -0.00484578      -0.00217441
H       15.61362733       8.62418849       9.82111669       0.00614505      -0.00231556       0.00220654
H       16.89628825       9.76821464      10.31055688      -0.00182691      -0.00505370       0.00582514
H       17.57159352       9.69682397       7.72779415       0.00060312       0.00948661      -0.00460893
H       16.30083012       8.46618161       7.47680048      -0.00240281      -0.00131465      -0.00348801
H       17.96578539       8.17042385       6.89885123       0.00442578      -0.00777673       0.01139291
S       16.13688600       6.84194358       1.25933081      -0.01332273      -0.01031663      -0.01131905
O       17.16690727       5.87024519       0.76826886      -0.00672966      -0.00561557      -0.00685278
C       14.51953813       6.11298272       0.97104444       0.00467620      -0.00051224      -0.01150403
C       16.04379590       8.15714662       0.04323681       0.00357311       0.00276364       0.00649871
H       14.41676681       5.27586471       1.65914220       0.00444943       0.01787477      -0.00296042
H       14.45202972       5.77101179      -0.06052984      -0.00684546      -0.01833739      -0.00008274
H       13.76972874       6.87162140       1.18158062       0.00871984      -0.01218242       0.01082188
H       15.36977893       8.92148033       0.41686923      -0.00297900      -0.00058701       0.00171371
H       15.70862633       7.77013211      -0.91735349       0.00842487      -0.01234483       0.01629096
H       17.05396463       8.55245719      -0.02845259      -0.00053908       0.01250064      -0.01038803
S       19.12836815      17.33816011       2.69304215      -0.00700438       0.00714372      -0.00092329
O       18.25920675      17.59651226       3.88467353      -0.00322527       0.00175427       0.00784177
C       18.11435922      17.63959385       1.23734367      -0.00267587       0.00372588      -0.00861455
C       19.25849890      15.55246956       2.50739595       0.00109546      -0.00499033       0.00018552
H       17.94353254      18.71154311       1.16605292       0.00085682       0.00481671      -0.00176090
H       17.17668069      17.10049111       1.33708089       0.00195518      -0.00221219      -0.00091157
H       18.66201910      17.30701464       0.35850897       0.00614169      -0.00554958      -0.00513194
H       19.68341260      15.33200301       1.53093835       0.00912318      -0.00423653      -0.00345814
H       18.28082155      15.09244207       2.61948127      -0.00566768      -0.00377973       0.00679999
H       19.94540347      15.18912892       3.26633640       0.00722288       0.00379021       0.00540951
S       17.38138774      11.07684177       3.08169502       0.00162075       0.00026076       0.00149557
O       17.96238552      12.45773209       3.10340287      -0.00184223       0.00118145      -0.00105114
C       17.00932233      10.65899025       4.79018444      -0.01019080       0.00771720       0.00795943
C       18.73696420       9.92117343       2.84047552      -0.00120956       0.00521607      -0.00386386
H       16.16354508      11.27880779       5.07350974      -0.01421663       0.00590725       0.00857351
H       17.84797387      10.91598247       5.42957741      -0.00199368       0.00971636      -0.00389683
H       16.74924940       9.60538426       4.86869158      -0.00538182       0.00514910      -0.00926264
H       18.34513300       8.90750030       2.91422217       0.00756198       0.00678293      -0.00412548
H       19.53961429      10.09015368       3.55711376      -0.00477074       0.00150482      -0.00465903
H       19.10783621      10.08868325       1.83215121      -0.00066213      -0.00922409      -0.00502647
S        6.16746838      16.49820804      11.33454240      -0.00364724       0.00083208      -0.00169524
O        4.85331075      16.03073749      11.89862705      -0.00348777      -0.00580854      -0.00828947
C        5.83827382      17.24375416       9.73864392      -0.00505387      -0.00128697       0.00301421
C        6.99282876      15.03592637      10.69676415       0.00100589       0.00556659      -0.00102815
H        5.33532361      18.18986107       9.91019479      -0.00386823      -0.00369541       0.00592123
H        5.19241800      16.58841555       9.15749722      -0.00225130       0.00430820      -0.00280060
H        6.79873773      17.42411176       9.26236340      -0.00536025      -0.00190607       0.00661425
H        7.87469540      15.35538463      10.14978973      -0.00194513       0.00743072      -0.00240866
H        6.30249549      14.49118307      10.05848231       0.00205472       0.00235627       0.00128449
H        7.27607772      14.41836081      11.54656830       0.00622964       0.00468476      -0.00435725
S        2.61979423      13.27308927       2.14874067      -0.03964452      -0.00367044      -0.02026812
O        2.06254728      14.14776836       3.23566035       0.00059062      -0.00505832       0.00197953
C        1.38335898      12.03751629       1.74007667      -0.00987953      -0.00297713      -0.00132658
C        3.80636769      12.19088838       2.92987807      -0.01020580       0.00988457      -0.00761808
H        0.54184491      12.55793599       1.29046544       0.00637214       0.01307272       0.01042100
H        1.08750158      11.49341032       2.63408491      -0.00023858       0.00690349      -0.00341552
H        1.81927850      11.36174522       1.00693701       0.00211870       0.01057176       0.00047864
H        4.20241861      11.50146247       2.18814444       0.00646073       0.00005237       0.00709442
H        3.34351828      11.65326446       3.75546948      -0.00490268       0.00417229       0.00193236
H        4.60461633      12.83981331       3.28196373       0.01007066      -0.00999669      -0.00037388
S        9.32054016      19.29600756      10.35237015      -0.00247954      -0.00034537       0.00647854
O        9.06038728      17.84158365      10.06848813      -0.00325946       0.00192170      -0.00621823
C        9.49733130      19.45644640      12.13226323       0.00196070       0.00391334       0.00523930
C        7.75949747      20.17271123      10.23650432       0.00425780      -0.00335327      -0.00021888
H       10.46283312      19.04698165      12.41818029      -0.00182757       0.00017664       0.00057080
H        8.67675916      18.92360617      12.60817222       0.00081886      -0.00261148      -0.00928678
H        9.47089789      20.51525795      12.37234495      -0.00305257       0.00439791      -0.00201824
H        7.95110697      21.20465546      10.52228474      -0.00072586      -0.00514243      -0.00155539
H        7.03870113      19.72606046      10.91847131       0.00253665      -0.00204513      -0.00945317
H        7.42068366      20.11134557       9.20408181       0.00517571       0.00083837       0.00513848
S        3.30651426       7.84174753      15.25828598      -0.00068437       0.00066065      -0.00194954
O        3.04258129       8.08258925      16.71332135       0.00186055      -0.00036168      -0.00048233
C        2.73390699       6.16844601      14.91871477       0.00323631      -0.00188777       0.00014310
C        5.06583137       7.51374953      15.08343852      -0.00176349       0.00429765      -0.00097786
H        1.65492294       6.16825804      15.04950084       0.00306619      -0.00016424       0.00502505
H        3.20370588       5.48020587      15.61809488       0.00488223      -0.00229447       0.00041604
H        2.97725104       5.90552604      13.89235112       0.00217798       0.00140002      -0.00198822
H        5.26645881       7.11640068      14.09215805       0.00089722       0.00369996       0.00062583
H        5.36631705       6.79754637      15.84527210      -0.00153249       0.00343323      -0.00259547
H        5.59167224       8.46077862      15.18983583       0.00261962       0.00150537      -0.00306000
S        6.42181280       9.06203186       2.07496149      -0.01384707      -0.00517779       0.00175080
O        5.67201148      10.03982736       1.21257868       0.00817839       0.00044013      -0.01237377
C        8.15577141       9.49956279       1.96266865      -0.00408355       0.00696412       0.00646372
C        6.53682101       7.52508812       1.16298588      -0.00092944      -0.00672732      -0.00799886
H        8.23847314      10.53250747       2.28511032       0.01430458       0.01025086       0.01013719
H        8.50574288       9.36950001       0.94081460      -0.00898788      -0.00070464       0.00024504
H        8.71248069       8.88612707       2.66525712      -0.00097419       0.00218004       0.00337297
H        7.12650075       6.80875687       1.73199883      -0.01028901      -0.00589738       0.00408335
H        7.00947684       7.72159092       0.20251880      -0.00506576      -0.01855349      -0.01864594
H        5.52656195       7.14399196       1.03602501      -0.00963834       0.00793627       0.01075039
S        5.35995199       3.57079014       2.37837114       0.00632480      -0.01225134      -0.00797772
O        3.92973585       3.22104116       2.61352059       0.00761013      -0.00421647       0.00959452
C        6.37772361       2.30719231       3.16339474       0.00068799      -0.00055628       0.00342677
C        5.76151762       4.89257634       3.53208134       0.00189797       0.00113082      -0.00529149
H        6.08407047       1.34951069       2.74153163      -0.00179261       0.00552283      -0.00300611
H        6.20919152       2.31222010       4.23680126       0.00699762      -0.00918825       0.00165862
H        7.42044461       2.51696360       2.93739090      -0.00007298      -0.00165018       0.00805444
H        6.83296481       5.07443999       3.51763166       0.00789800      -0.00661569      -0.00776649
H        5.42154853       4.61065819       4.52537676      -0.00941990      -0.01445366      -0.00427942
H        5.22552575       5.77504732       3.19883457       0.00097357       0.00961006      -0.00098770
S        3.66450293       8.08986300       6.09511967       0.00116922      -0.00591224      -0.00010151
O        2.52374248       8.12247027       7.07225809       0.00275160      -0.00493662       0.00260458
C        3.07350035       7.31379791       4.59832656       0.00142254      -0.00316762      -0.00360673
C        4.75374747       6.76353645       6.61509414      -0.00145476      -0.00229710       0.00197180
H        2.25338029       7.92589827       4.23550802       0.00064263      -0.00064551       0.00190432
H        2.77888655       6.28830235       4.81116328      -0.00134775      -0.00235418      -0.00653717
H        3.88636567       7.34876595       3.87556697       0.00437498      -0.00436498      -0.00194501
H        5.54770083       6.66867183       5.87579809      -0.00332507      -0.00092970       0.00069567
H        4.17758863       5.84141530       6.67678457      -0.00097338      -0.00103678       0.00541385
H        5.17885244       7.01526219       7.58425302      -0.00370636      -0.00120894       0.00227894
S       16.56717114       1.41134178      -0.67938694       0.00021226       0.00268902       0.00286464
O       17.87739102       1.11198989      -0.01551710       0.00249559       0.00594137      -0.00378402
C       15.76898754       2.72735875       0.24504614       0.00141401       0.00599977       0.00210825
C       15.44959876       0.11272684      -0.16052853       0.00325833       0.00495325       0.00378699
H       16.33114366       3.64679047       0.10029845      -0.00260505       0.00941751       0.00451328
H       15.75669118       2.44400208       1.29701917      -0.00098094      -0.00405719      -0.00010078
H       14.75434143       2.83509499      -0.13689962       0.00192194       0.00882679       0.00111154
H       14.43683269       0.35971949      -0.47415235       0.00486297      -0.00243744       0.00326625
H       15.51445771       0.04697918       0.92349244      -0.00221040      -0.01007189       0.00249358
H       15.78704423      -0.80878462      -0.63054355      -0.00883888       0.00319786       0.00244663
S        9.62883216      18.77001273       6.69785664       0.00272009      -0.00032556       0.00979582
O        8.57207179      19.71302837       6.16622535       0.00460904       0.00075588      -0.00038440
C       10.86945589      18.60199236       5.41986006      -0.00331044      -0.00019214       0.00621326
C        8.94700287      17.11652281       6.55851484       0.00360354      -0.00157866       0.00462350
H       11.45871493      19.51379466       5.42734919      -0.00202894      -0.00316755       0.00172797
H       10.38963599      18.47861908       4.45407984      -0.00143042      -0.00541720       0.00694628
H       11.49004262      17.75032570       5.68768180      -0.00673735      -0.00032146       0.00642804
H        9.74581064      16.41661898       6.78502149       0.00236411      -0.00856958       0.00257361
H        8.55117340      16.95963052       5.55682502       0.00465948       0.00354952       0.00237949
H        8.15782922      17.03194587       7.30037282      -0.00539650       0.00490868      -0.00095764
S       10.43479268      13.96007352      12.55073372      -0.00020741       0.00922152       0.00225353
O       10.36908069      14.20780298      14.02968119       0.00324035       0.00070044       0.00430685
C       12.16807193      13.75754718      12.13404088      -0.00805582      -0.00076133       0.00408390
C       10.22495553      15.56820350      11.78227068       0.00350964       0.00697862      -0.00432987
H       12.52156913      12.85807846      12.63366525       0.00302660       0.00185625      -0.00399629
H       12.72077397      14.63320688      12.46934740      -0.00643747      -0.00308527      -0.00552978
H       12.26197559      13.64129359      11.05640225      -0.00006073      -0.00017922       0.00849628
H       10.33793464      15.50564563      10.70495993       0.00101256      -0.00050884      -0.00564464
H       10.95663178      16.25256592      12.19967399       0.00617432       0.00462307      -0.00492149
H        9.22726058      15.92982133      12.00601222       0.00162835      -0.00334302       0.00729274
S       12.16734525       2.91274138       2.93371947      -0.00428458      -0.00449718       0.00134576
O       12.23876431       4.04126759       3.93672353      -0.00101828      -0.00054408      -0.00124470
C       10.47490354       2.32150588       2.91116192       0.00071983      -0.00420840      -0.00463281
C       12.90879903       1.46251679       3.66603982      -0.00103132      -0.00389690       0.00612230
H        9.85595759       3.13185665       2.52806831       0.00223709      -0.00463648       0.00363867
H       10.17284777       2.03254160       3.91551163       0.00202024       0.00021115      -0.00618365
H       10.44110600       1.46790767       2.23780836      -0.00928881      -0.00237558      -0.00192481
H       12.69008468       0.62569462       3.00453794      -0.00243028      -0.00044801       0.00143328
H       12.48704149       1.28068330       4.65185052      -0.00269823      -0.00025086       0.00748720
H       13.98252362       1.61585086       3.71592991       0.00104752       0.00165551      -0.00135761
S        4.14062434      18.44816338       4.76019856      -0.00515733       0.03143507       0.00725513
O        4.75171875      18.67758135       3.40720701      -0.00261859      -0.02164048       0.00118308
C        5.49941178      18.06952492       5.86821707      -0.00504309      -0.00181766      -0.00206240
C        3.38804047      16.81631572       4.75998460       0.00910484       0.00724326       0.00102091
H        6.12257990      18.95714662       5.94302227      -0.01226823       0.00098565      -0.00587292
H        6.07802613      17.24819871       5.45138202       0.00167971      -0.00513638      -0.00034908
H        5.08226478      17.83572480       6.84277079      -0.00444308      -0.00925715      -0.00213277
H        3.02891329      16.62454809       5.76740267       0.00203773      -0.01921621       0.00168150
H        4.11046054      16.06602379       4.45537928       0.00564579      -0.02016093      -0.00629475
H        2.56478036      16.82665354       4.05254205      -0.00255200       0.00412172       0.00141617
S        7.91592977      10.99675004       5.90498081      -0.00135676      -0.00539395       0.00518009
O        8.95932674      10.42157446       4.98011072       0.00222364       0.00518667       0.00448466
C        6.82266301       9.65458581       6.35397838      -0.00371902       0.00187633       0.00131420
C        6.73688665      11.86006451       4.87320982       0.00328677       0.00159834       0.00567469
H        7.36431487       8.97423822       7.00253471       0.00013782       0.00211665      -0.00383043
H        6.49370197       9.14736286       5.45013570       0.00470048       0.01054820      -0.00233961
H        5.98594097      10.09627115       6.88738722      -0.00185377       0.00303263      -0.00094494
H        5.88524353      12.09070660       5.50877138       0.00006439       0.00157088      -0.00190462
H        6.44243253      11.21614748       4.04634229      -0.00198683       0.00629547       0.00586002
H        7.19917977      12.77881558       4.51636288       0.00014278       0.00049395      -0.00117638
S        1.91180072      17.00192015       8.95261862       0.00407288       0.00795275       0.00415106
O        3.09151180      16.65227259       8.08659069      -0.00201278       0.00059851      -0.00011931
C        2.39815107      18.41496274       9.94757390      -0.00240565       0.00670290       0.00667084
C        1.87955953      15.80297926      10.27802930      -0.00198458       0.00434679      -0.00664288
H        2.71665613      19.18270972       9.24576053      -0.00597905      -0.00211589      -0.00838425
H        3.20796871      18.13710981      10.62230355       0.00083076      -0.00246584       0.00277494
H        1.52707638      18.72433795      10.52132647      -0.01534192      -0.00406078      -0.00209493
H        1.15023444      16.13899428      11.01236344       0.00360645      -0.01044519      -0.00258392
H        2.87481261      15.74048178      10.71579366      -0.00940963      -0.00181228      -0.00083303
H        1.59581644      14.83702804       9.86791481      -0.00406140       0.00261963       0.00338362
S       13.46278386      16.94753300       8.18718934      -0.00097640       0.00265519       0.00391456
O       12.10902988      16.64733137       7.61640433       0.00099818       0.00220258       0.00040916
C       13.61721561      15.93621393       9.65662502       0.00095553      -0.00036953      -0.00013367
C       13.29343420      18.53494481       9.01148958      -0.00354077      -0.00094957      -0.00038658
H       13.70083168      14.90725488       9.31390947      -0.00056282       0.00089385      -0.00332263
H       12.72162357      16.07493215      10.26011147       0.00123619       0.00499481      -0.00352014
H       14.50787192      16.24839900      10.19804801       0.00098107      -0.00231393      -0.00080805
H       14.15662840      18.71537594       9.65108276      -0.00132537      -0.00559563      -0.00477429
H       12.36244084      18.52560358       9.57564778       0.00022015      -0.00192353       0.00283956
H       13.22730867      19.30102867       8.24191865      -0.00688630      -0.00028404       0.00108602
S        2.46401162      16.96106939      15.44966334      -0.00099031       0.01304851       0.00804929
O        1.61472643      15.94288866      16.16523657       0.00467635      -0.00685038      -0.01015961
C        1.84605253      17.03369909      13.76747820      -0.00089777      -0.00202103       0.00422632
C        4.03453684      16.18002119      15.07170288      -0.00515100      -0.00023404      -0.00006816
H        0.96413157      17.66683725      13.73464688       0.00601693       0.00506876       0.00692492
H        1.57983953      16.02184090      13.47855969       0.01008450      -0.00481975      -0.01243829
H        2.62493839      17.43722016      13.12410825      -0.01528068      -0.00205696      -0.01340049
H        4.59828977      16.85784700      14.43612925       0.00747345      -0.00802344      -0.00156642
H        3.85929511      15.23864357      14.55802556       0.00323320      -0.01276510       0.00444863
H        4.54393575      16.00822522      16.01768190      -0.00521464      -0.00491551       0.00045358
S       12.33836609       1.29235797      17.73302049      -0.00524638       0.00529211      -0.00202229
O       12.60612222       1.48933765      19.19390680       0.00107606       0.00510072      -0.00351315
C       13.92417681       0.95919012      16.95029861      -0.00369948       0.00729004       0.00173228
C       12.09094370       2.91838833      17.01652549       0.00013324      -0.00279613       0.00242890
H       14.28842973       0.00109453      17.30842808      -0.00629722       0.00671076       0.00135802
H       14.62927856       1.74102354      17.21978779       0.00619386       0.00027186      -0.00284784
H       13.76363656       0.90431898      15.87657531       0.00798409       0.00270143       0.00141368
H       12.15325494       2.83269380      15.93288219      -0.00441700       0.00413752       0.00593707
H       12.83671271       3.60976736      17.40559508       0.00080923      -0.00882181       0.00498812
H       11.08730942       3.23173765      17.29339142      -0.00096899      -0.01100700      -0.00206387
S       13.66793232       5.92558257       9.82463249      -0.00974198      -0.00111701       0.00229942
O       13.96287747       4.46622428       9.87740337       0.00435466      -0.00003313      -0.00129081
C       11.90276300       6.11131750       9.52329948      -0.00763383       0.00121960      -0.00080185
C       14.20963211       6.49759417       8.20598198       0.00000176      -0.00116168      -0.00073225