708
Lattice="18.19 0.0 0.0 0.0 18.19 0.0 0.0 0.0 18.19" Properties=species:S:1:pos:R:3:forces:R:3 energy=-1046643.7645924313 free_energy=-1046643.7645924313 stress="-0.014430018823876097 -0.0007856238188575723 -0.00042102142051015826 -0.0007856238188575723 -0.016398648148752956 0.0006204719673458824 -0.00042102142051015826 0.0006204719673458824 -0.017606719701030497" pbc="T T T"
C       15.70902721      11.22522041       8.83313302       0.00580530       0.00895730       0.00681389
C       14.69749572      10.43244449       8.29258897       0.00817778       0.01214698      -0.00783857
C       13.63297923      10.04138130       9.13077102       0.02215608      -0.01497940      -0.00221339
C       13.69779143      10.37326242      10.48737236      -0.01562468       0.00443567      -0.00593949
C       14.73682545      11.09272732      11.02095631      -0.00585394      -0.00986239      -0.00173469
C       15.74058699      11.54132836      10.16873148      -0.00465758       0.01349316       0.00962591
H       16.47338044      11.61306441       8.17726455       0.01229103      -0.01776815       0.00170743
H       12.89067585      10.03738705      11.11508220      -0.00681857      -0.00288676       0.00998752
H       14.73365527      11.34691636      12.06515599       0.00582001       0.00393453      -0.00910892
H       16.55255386      12.13682908      10.55055931       0.00902399       0.00958376       0.00492334
N       12.47824579       9.32428118       8.77817032       0.00130518       0.01108574       0.00613442
N       12.42938947       8.82418542       7.63285168      -0.00691208       0.00761771       0.00780932
C       11.24168154       8.09557362       7.35843280       0.00051617       0.00152752      -0.00872388
C       11.28706092       7.24255130       6.26513912       0.00536128      -0.03188325       0.02196584
C       10.07226165       8.21705840       8.09977168      -0.00208349       0.02096542      -0.01401710
C       10.17813118       6.52048212       5.88641220      -0.01994157       0.02671843      -0.02148123
H       12.20669131       7.08860535       5.73679090       0.00728706       0.01046284       0.00541648
C        8.94872912       7.51042000       7.72979745       0.01383975      -0.01717104       0.01931815
H       10.04269227       8.90768930       8.92290879      -0.00314478      -0.00606906       0.00174348
C        9.03084878       6.67475882       6.62939378      -0.00155035      -0.00330792       0.01268041
H       10.22563223       5.84347434       5.05338068       0.00984693       0.00198150       0.00374586
H        8.02060996       7.61483704       8.26852141       0.00535038      -0.00968203      -0.00019887
N       14.79366171      10.02446808       6.97804640      -0.00664393      -0.00201481      -0.01129733
H       15.25953119      10.67883397       6.37429448       0.00681261       0.00117498       0.01075517
H       13.91254771       9.69345090       6.62591006      -0.01546292      -0.01533570       0.00996163
N        7.86490140       5.87668081       6.25617786       0.00116442       0.01492742      -0.00989251
O        7.03171846       5.65511873       7.10673569       0.00682826       0.03130983      -0.01169438
O        7.80065310       5.48115703       5.11046881      -0.01346822       0.00210256      -0.00559485
S        7.04524442       9.72207971      17.65663357       0.00036063      -0.00281821      -0.00525938
O        7.90842126       8.50698349      17.92787851      -0.00821325      -0.00802898       0.00428728
C        7.52657112      10.94218492      18.86380647      -0.00202618      -0.00336516      -0.00153455
C        5.42438090       9.38429881      18.31144475       0.00572499      -0.00347384       0.00304759
H        8.50941522      11.31154473      18.58769124      -0.00042562      -0.00519546      -0.00194837
H        7.52426883      10.48320707      19.84982884      -0.00484070      -0.00467859       0.00267413
H        6.81591320      11.75917180      18.81804150      -0.00026845       0.00149011      -0.01016583
H        4.88679507      10.32448578      18.24731881       0.00236840      -0.01185601       0.00936420
H        5.50132748       9.04000911      19.33882602      -0.01018634      -0.00833707       0.00391905
H        4.93264186       8.65965442      17.67039911       0.00166031      -0.00337423       0.00620451
S       10.71717715       7.07177984      15.75747157      -0.00474320       0.00625148       0.00378614
O       11.50809741       6.38681044      14.66451331      -0.00503609       0.00044341       0.00844958
C        9.02221845       6.59794211      15.53871375       0.00166955       0.00150459       0.00078599
C       10.45259933       8.76342533      15.28390775      -0.00201723       0.00263781       0.00143515
H        8.93663751       5.55044697      15.79965259      -0.00248119       0.00254627      -0.00378277
H        8.72588024       6.76678395      14.51061531      -0.00751346      -0.00783822       0.00459148
H        8.44146416       7.18354230      16.24323669       0.00048396      -0.00464004       0.00190197
H        9.84832340       9.19614262      16.07648658      -0.00479860      -0.00044500       0.00046586
H        9.91552984       8.81050644      14.33833705       0.00321585       0.00864347      -0.00094075
H       11.39225463       9.29710524      15.23086769       0.00070674      -0.00444444       0.00140736
S       15.84399382       1.13652744       8.03497318      -0.01525368      -0.03629566      -0.01442669
O       15.52839450       1.40998419       9.48295921      -0.00247639       0.01277044      -0.02170539
C       17.31061916       2.06145022       7.67365197      -0.01862892      -0.01107024       0.00744875
C       14.78435288       2.20332263       7.06736164       0.00269218       0.00230948       0.00764482
H       18.14937793       1.55144430       8.13334537      -0.00042510       0.01120493       0.00487195
H       17.17859459       3.06250221       8.07176426       0.01783394       0.01168674       0.00111654
H       17.43636129       2.11823878       6.59738732       0.00555638       0.00044959       0.00725502
H       15.20394473       2.26532120       6.06493360      -0.01167489      -0.00101018       0.00014288
H       14.78479776       3.17336756       7.56191928      -0.01260872       0.00698857       0.01000951
H       13.77565216       1.80339829       7.03534191       0.01068724      -0.00385743       0.01028392
S       17.08749513      15.41145853      12.04001860      -0.00839400      -0.01690372      -0.00681927
O       16.92991345      16.46142801      10.98193918       0.00100317      -0.00551797       0.00028019
C       18.28956713      14.21718898      11.44211634       0.00316525      -0.00157211      -0.00160166
C       15.69809202      14.30589552      11.85995971       0.00165551      -0.00075580       0.00802578
H       19.28524138      14.64553799      11.49429306       0.00727886      -0.00663377       0.00522895
H       18.05635553      13.96595677      10.40816680       0.00444404       0.01786247      -0.00037302
H       18.22005471      13.33257526      12.07399316       0.00416774       0.01262725       0.01180680
H       15.88427595      13.41938626      12.46058954      -0.00537418      -0.00291918       0.00038417
H       15.58115447      14.05910097      10.81090881       0.00628427       0.00811417       0.01533046
H       14.81956337      14.81620928      12.24124583       0.00267979      -0.00388927       0.00245718
S       18.14533424       7.81481001       9.59146833       0.01263200      -0.01334841       0.00068292
O       17.84239617       6.37712992       9.30188019      -0.00950197      -0.00944063       0.01020917
C       16.76648141       8.46694581      10.54108614       0.00383452       0.00346385      -0.00707501
C       17.91210140       8.71063957       8.05137730      -0.00062035       0.01361466      -0.01569338
H       16.58814278       7.73622581      11.32455810       0.00659075       0.00051931      -0.00782776
H       15.88016911       8.60985226       9.93214934      -0.00249703      -0.00682907      -0.00783709
H       17.05048784       9.40437057      11.00658345      -0.00118372       0.00410502       0.00649581
H       17.54629821       9.70559023       8.27015012      -0.00426067       0.02048873       0.00139700
H       17.18930322       8.17626581       7.44097305      -0.00471286      -0.00550712      -0.01020191
H       18.87741720       8.77939095       7.55528289       0.01510171      -0.01410256      -0.00099119
S       15.67330875       6.87090884       1.61727728       0.02100284       0.00819828      -0.00824151
O       16.50297876       5.72459599       1.10323467       0.00047345       0.00322074      -0.00726085
C       13.94265022       6.39522098       1.57359871       0.00079560       0.00364134       0.01513052
C       15.65927782       8.07738456       0.31520098       0.00185553       0.00007631       0.00661936
H       13.77289808       5.61164519       2.30575024      -0.02066796      -0.02010804       0.00840333
H       13.65577605       6.07022544       0.57619854       0.01013016       0.00019317       0.00093063
H       13.38128338       7.27934524       1.85329434      -0.00478283       0.01606065       0.00444574
H       15.41789001       9.03733160       0.75254620       0.00791130       0.00075239      -0.01035719
H       14.96513041       7.80803555      -0.47604188       0.00951826       0.00601464       0.00614832
H       16.68606256       8.06654089      -0.03519035      -0.00944490       0.00039428      -0.00393693
S       18.25931935      16.26608425       2.38698440      -0.00391429       0.00449383      -0.02046062
O       16.77081693      16.21067979       2.59522688      -0.00808811       0.01025272      -0.01618473
C       18.58300948      17.23424279       0.91052492       0.00636120       0.02306594       0.00110984
C       18.73947105      14.68226623       1.69986034       0.01302758      -0.01629499      -0.00922020
H       18.08416711      18.19707994       1.01673587       0.00519143      -0.01628176       0.01074190
H       18.22872919      16.71574689       0.02615185       0.00134091      -0.01747865      -0.00336943
H       19.65851377      17.37361295       0.83005675      -0.00607134      -0.01291214      -0.00106108
H       19.73502000      14.75380592       1.27248857      -0.00987661      -0.00795105       0.01477749
H       18.00762911      14.42118199       0.94424698      -0.01073835       0.00703455       0.01323878
H       18.74202453      13.92838931       2.47751677      -0.02203259       0.00392058      -0.00164763
S       17.73470171      10.00833721       2.62059558      -0.00673607      -0.01375207       0.03925771
O       18.21252617      11.42188650       2.55063847      -0.00487419      -0.02048218      -0.00706629
C       17.42668094       9.67804157       4.36515122       0.00775918       0.01461191      -0.00884369
C       19.18153264       8.95729658       2.45936668      -0.00638269       0.01225585       0.00598398
H       16.57738134      10.29306303       4.65429308       0.02437206      -0.00822396       0.00653131
H       18.31919707       9.95826199       4.92560476      -0.03187486      -0.00523546      -0.00154623
H       17.18492739       8.62944613       4.52112868       0.01717825       0.03419643      -0.01583269
H       18.88716057       7.91665759       2.55673509      -0.02022023       0.02022193      -0.01068592
H       19.89548314       9.24546628       3.22093492       0.00691004       0.00557888      -0.00269168
H       19.59412107       9.12385057       1.46942837       0.00551087       0.00534247       0.01068967
S        6.74797644      16.47605577      10.88064143      -0.00888185      -0.01627708       0.01800414
O        6.59456459      16.19463361      12.35578858      -0.00006006       0.00512701       0.02016882
C        5.14654507      16.16215533      10.17140887      -0.01013464      -0.00252805      -0.00274705
C        7.67983285      15.09863915      10.16539259      -0.00940245       0.00651184      -0.00794749
H        4.47981622      16.90631648      10.58958294       0.00666829       0.00855267       0.00704701
H        4.76961742      15.17160484      10.39796517       0.00786518      -0.00859840       0.00673703
H        5.21540178      16.31697381       9.10219333      -0.00540980       0.00437215      -0.01035815
H        8.56461251      15.49997951       9.68510998       0.00725342      -0.00426267       0.02923380
H        7.07728526      14.54792363       9.45104126      -0.00221398      -0.00747166       0.00209248
H        7.94501040      14.44644274      10.99780802       0.00833383       0.01943011      -0.02435392
S        4.40226378      12.50310060       2.10848961      -0.01547044      -0.00053899       0.01112475
O        3.43287131      13.66020222       2.16598100       0.01858311       0.02156512       0.00003666
C        3.42989516      11.02815341       2.26038962      -0.00175577      -0.00452403       0.00090338
C        5.27288866      12.50359184       3.65977723      -0.00030814       0.00191984      -0.00294101
H        2.93788640      10.87416390       1.30325622       0.01005910       0.00535000      -0.01089852
H        2.67275741      11.15555502       3.02624727       0.01448137       0.01035514       0.00466819
H        4.09251679      10.19984086       2.49775123       0.00556994      -0.00156654       0.00733856
H        5.88047307      11.60630445       3.70104737       0.00733175      -0.00899342       0.00251324
H        4.58661409      12.53225431       4.50231677       0.00907408      -0.00444868      -0.00178365
H        5.91253942      13.38560927       3.64613592      -0.00624152       0.00230113      -0.01326129
S        9.85159639      18.73387866      10.43208332       0.00322210       0.01264420      -0.00507393
O        9.63853236      17.34547896       9.92181299       0.00031989       0.01243382      -0.00634253
C       10.00844484      18.60759501      12.19910293      -0.00189345      -0.00647464      -0.00190267
C        8.27986559      19.55786492      10.38284395       0.00837610       0.00430283       0.00645605
H       10.90901246      18.05036233      12.43162482       0.00057201      -0.00223543      -0.00187497
H        9.12020638      18.11312804      12.58194053       0.00259258      -0.00625724       0.01661314
H       10.08782582      19.60988488      12.60147402      -0.00597555      -0.00242751      -0.01150196
H        8.49833737      20.61580651      10.35705555      -0.01049507       0.00326600      -0.01417184
H        7.67569398      19.33113008      11.25492124       0.00711049      -0.01104066      -0.00067827
H        7.79628685      19.21183384       9.47488018      -0.00074863       0.01203615       0.01222425
S        4.09435318       7.34474156      14.85994575       0.00907350      -0.01306770       0.00412772
O        3.40845568       7.72534864      16.14274252       0.00131302       0.01115706      -0.01150902
C        4.12770304       5.55561550      14.79289254      -0.00135318      -0.00811427      -0.00088484
C        5.86233181       7.60458382      15.09466932      -0.01421140       0.01054682       0.00070367
H        3.10304124       5.21095845      14.86476524      -0.01307172       0.01340227      -0.00434900
H        4.71028551       5.14801164      15.60919028       0.01177450       0.01051321      -0.00730587
H        4.55921871       5.25687482      13.84133916       0.00673553       0.01085813      -0.00307775
H        6.41941135       7.08992970      14.31303008       0.00091092       0.01473551       0.02219883
H        6.16226983       7.23364713      16.07344188      -0.00055880       0.00053269      -0.02182410
H        6.05476663       8.67290764      15.02112234      -0.00517100      -0.00135264      -0.01603697
S        7.10740042       8.34939071       3.87952000       0.00442948       0.00701484       0.02528734
O        6.33081419       9.55966439       3.42546963       0.00214003      -0.00772965      -0.00966480
C        8.83613288       8.77936379       3.82433226       0.00110098      -0.00966559      -0.00099981
C        7.07876428       7.21235606       2.52625527      -0.00620631      -0.01186186       0.00196952
H        9.09642664       9.35199332       4.71272492      -0.01161206      -0.00261188      -0.01166327
H        9.02600090       9.34658235       2.91801215       0.00689843      -0.00290904       0.00709178
H        9.40504029       7.85656193       3.82481156       0.00805720      -0.00317378       0.00046129
H        7.58158028       6.28879314       2.80462922       0.00795391      -0.01193965       0.00538675
H        7.50918162       7.64820065       1.62641470       0.00046205       0.00033574      -0.01242257
H        6.02294510       7.02778388       2.36502302      -0.01854155      -0.01259858       0.01901905
S        4.48131847       3.13408894       3.64684933      -0.01226557      -0.00104100      -0.00846135
O        3.39047126       2.81735390       4.61409895       0.00131093      -0.00271838       0.01423816
C        6.04455876       3.07750161       4.53735341      -0.00766086       0.01656222       0.00184720
C        4.52453787       4.90642900       3.46603945      -0.00110070       0.00893825      -0.00935423
H        6.35413168       2.04640085       4.68078444      -0.00998378       0.00986405       0.00063152
H        5.91245568       3.59691102       5.48057380      -0.00641160      -0.00476672       0.01698794
H        6.81050219       3.57809913       3.95892483       0.00739023       0.00140850      -0.02510877
H        5.27826400       5.11560888       2.71789816      -0.01707700       0.00991641      -0.01730100
H        4.77530448       5.37137365       4.41345927      -0.00521337       0.01026297      -0.00436192
H        3.54436956       5.20900425       3.11500939      -0.00502407       0.00628048       0.00970830
S        4.00394194       9.00253020       6.28608174       0.00802177       0.01898930       0.00195983
O        2.88321018       9.03804185       7.29232389      -0.00587524      -0.00239836      -0.01360296
C        3.46855038       8.05414205       4.86317971       0.00256494      -0.00062100       0.00815433
C        5.15848332       7.77753436       6.86882786       0.00675127       0.00075346       0.00740049
H        2.42527359       8.28980354       4.71207886      -0.00419864       0.00981430      -0.00136073
H        3.60377882       6.98870379       5.02773385      -0.00302720      -0.01786160      -0.01106876
H        4.04633033       8.39790155       4.00737366       0.00178907      -0.00779156      -0.00169010
H        5.91645123       7.68739228       6.09913335       0.00306427       0.00468410      -0.00292328
H        4.66427508       6.81868092       6.99488668      -0.00249401      -0.00871001      -0.00381814
H        5.62380652       8.09813019       7.79396352       0.00607155       0.01866599       0.01037704
S       15.48152461       1.82250620       0.65382004      -0.00089247      -0.02389767      -0.00666434
O       16.97408187       1.96288721       0.79722767      -0.00438385       0.00797324       0.00757333
C       14.73905043       3.31600460       1.23761446       0.00395323      -0.00681472      -0.00746464
C       14.94446256       0.74435479       1.94724964       0.00059173      -0.00030041      -0.00546149
H       15.02295030       4.11103944       0.55870509      -0.00251002      -0.00638443      -0.00530996
H       15.12492172       3.55287201       2.22363903       0.00420692       0.00412991       0.01418709
H       13.66508731       3.15490621       1.23050543      -0.00235455       0.00997237       0.00754506
H       13.85928672       0.70878869       1.91813078       0.01867671      -0.00003925      -0.01256816
H       15.31278701       1.11916078       2.90138173       0.00301776      -0.00441355      -0.00829997
H       15.38210449      -0.23371827       1.76146387      -0.01840288       0.01114517       0.01018658
S        9.70648093      18.28059388       7.11152763       0.01979987       0.00023143      -0.01916220
O        8.90380985      19.39722774       6.45836136      -0.00403482       0.00005375       0.00525361
C       10.82879466      17.63911044       5.89685511       0.01016913      -0.01266853      -0.00337901
C        8.65539348      16.84119080       7.16860343       0.00948513       0.00982361      -0.00061831
H       11.60298810      18.37270975       5.70509871      -0.01114211      -0.00541379      -0.00426330
H       10.30045999      17.42075980       4.98173885      -0.00528583       0.00668361       0.01229737
H       11.24489977      16.73592270       6.33278266      -0.00051794      -0.00086724       0.01054650
H        9.27202367      16.04007864       7.56460104      -0.00984334      -0.00194683      -0.00637845
H        8.28735337      16.61157686       6.17126215       0.00404436      -0.00957740       0.00944144
H        7.83492449      17.06616872       7.84361112       0.00879324      -0.00420137       0.00015063
S       10.60093232      13.51397024      11.32404444       0.00218798      -0.00066231       0.00145265
O       10.14323403      13.23482773      12.72210158       0.00419670      -0.01091645       0.00232601
C       12.29674277      12.97071146      11.16710003      -0.00351955       0.00073543       0.00194361
C       10.96758062      15.25825077      11.25251593       0.00187942       0.00871299       0.00100938
H       12.35401887      11.98757134      11.61161103      -0.00100130       0.00536148       0.00449236
H       12.98471195      13.63023401      11.68817575      -0.00701149      -0.00349545       0.00420665
H       12.56675737      12.93083051      10.11251718      -0.00700384      -0.00872002       0.00289153
H       11.26726735      15.51761443      10.23999208      -0.00290845       0.01269321      -0.00476580
H       11.74714528      15.49637054      11.97328096       0.00638362      -0.00552946       0.00517620
H       10.06060625      15.80249502      11.47648564      -0.00461172       0.00497101       0.00145515
S       12.03394810       3.82841704       3.39128435       0.00033380       0.00109756      -0.00137645
O       12.28256261       4.99390534       4.32681003      -0.01129741       0.00091327      -0.00036967
C       10.37619794       3.20206509       3.65442008       0.00371326      -0.00255798      -0.00031009
C       12.88900898       2.41319571       4.04783924       0.00041545      -0.00030689      -0.00008776
H        9.72959188       4.04819859       3.85654582       0.01025021       0.00058209      -0.00052987
H       10.32901368       2.47058753       4.45576730       0.00289388      -0.00656567      -0.00316079
H       10.09724729       2.76200026       2.70627621       0.00601703       0.00313268      -0.00255202
H       12.56353342       1.57106158       3.44430863       0.00228393      -0.00568461       0.00338857
H       12.62587739       2.27065862       5.09414234      -0.00135777      -0.00903847       0.00155767
H       13.95704524       2.56424203       3.93693485       0.00046674       0.00281214      -0.00438217
S        4.41494195      17.82306272       4.01568946       0.00055208      -0.01158084      -0.00880670
O        5.20314858      18.08331405       2.75992244       0.00541017       0.01329507       0.00899584
C        5.54058644      17.08877760       5.19236129       0.00425266       0.00319778      -0.00167300
C        3.41938737      16.36690537       3.75350422      -0.00233780      -0.01086101      -0.00925020
H        6.27677795      17.82681182       5.48886189       0.01465984       0.00213808       0.00098879
H        6.02757451      16.22410838       4.74702665       0.00086996      -0.00002158       0.00372186
H        4.95277102      16.83998183       6.06899870      -0.00573143       0.00158329       0.00172036
H        2.82576405      16.22720106       4.65284342       0.00143996       0.00084337       0.00550971
H        4.02203298      15.49635636       3.51411298       0.00533320      -0.00520022       0.00155471
H        2.75795003      16.58114725       2.91953220       0.00694070      -0.00258463      -0.00561172
S        8.43767318      11.37789369       6.97859355       0.00495491      -0.00219669       0.02639667
O        9.68736860      10.65216605       6.55226114      -0.00328233       0.00100652      -0.01116298
C        8.26514210      11.17536138       8.74762472       0.00941227       0.00297237       0.01012448
C        7.08158898      10.34264922       6.50734906       0.00338455      -0.00147568      -0.01164498
H        9.12472310      11.61972577       9.23787709      -0.01293984       0.00461515      -0.01844790
H        8.16981113      10.12147849       9.00484916       0.00574081       0.00082820       0.00222793
H        7.36789585      11.71163861       9.04117298       0.01165747      -0.01323826       0.00404239
H        6.17057953      10.73000540       6.95370679       0.00288984      -0.00189848      -0.01177797
H        7.30192246       9.32822657       6.82184356      -0.01025545       0.00086880      -0.00007456
H        6.98370623      10.39537207       5.42680550      -0.01801530       0.00217294      -0.00936258
S        1.49506869      17.48312736       8.05372056      -0.00510696       0.00422525      -0.00030550
O        2.31168807      17.14342480       6.81983930      -0.01114665       0.00951120      -0.00471494
C        2.57634140      18.41725323       9.13194561       0.00428056       0.00197548      -0.01093314
C        1.44777988      16.03528487       9.07789379      -0.00226661       0.00082622       0.00236112
H        2.55639908      19.46455895       8.85398403      -0.00828106       0.00196574      -0.00577177
H        3.57937653      18.01626359       9.00257257       0.00707953       0.00315301      -0.00386717
H        2.24369837      18.33061899      10.16207086       0.00433835      -0.00860041      -0.01621420
H        0.92128485      16.34542586       9.97673222      -0.00594038       0.00474525       0.00562904
H        2.44974351      15.67589281       9.29205553      -0.00037870      -0.00454877       0.01888298
H        0.85437022      15.27618957       8.57502887      -0.00602920       0.00347211       0.00150810
S       13.22026209      16.46007331       8.14038346       0.00625945       0.00014255       0.00894339
O       11.90137183      15.74354517       8.17308124       0.00048222       0.01779788       0.00833505
C       14.18682136      15.77460945       9.46306469      -0.00758785      -0.00574460      -0.00590021
C       12.84705276      18.01978649       8.90312678       0.00298996       0.00604908      -0.00128801
H       14.41358335      14.75403296       9.17440361       0.00315567      -0.00255873      -0.00002200
H       13.56860525      15.77811430      10.35701859       0.01261407       0.00455258      -0.00411788
H       15.10152965      16.34776422       9.61607426      -0.01312304      -0.01184802      -0.00118680
H       13.73729730      18.50098613       9.29750170      -0.00050264       0.00753621      -0.00122895
H       12.12172741      17.80427120       9.68651591      -0.00081416      -0.00862586      -0.00320264
H       12.37338212      18.66673382       8.17180414      -0.00432030      -0.00379669      -0.00793796
S        2.45394602      17.01534703      15.29244267      -0.00605770       0.01686209       0.01003230
O        1.85209272      16.10895280      16.35190526       0.00721880      -0.00527979      -0.00416002
C        1.58163749      16.64214696      13.78448366       0.00345580       0.00585548      -0.00058867
C        4.01578485      16.27949043      14.82811902       0.00205490       0.00384247      -0.00135901
H        0.64668635      17.18501774      13.79179379      -0.00410844       0.00135043      -0.01163642
H        1.40738696      15.57298754      13.73600942       0.00620214      -0.00168428       0.00114518
H        2.15608364      16.98197483      12.93151671      -0.00597133       0.00735189      -0.00981655
H        4.28194053      16.58366759      13.82114841      -0.00486625       0.00159795      -0.01497317
H        3.93808486      15.20167294      14.91686731      -0.00278452      -0.00994018       0.00731168
H        4.78273231      16.63312058      15.49866947      -0.00239828       0.00549020       0.00597641
S       11.27493224       0.98318252      18.19031162      -0.01087830      -0.02016322       0.02577531
O       11.98776397       1.79739960      19.22897137      -0.00271214       0.00443778       0.00818590
C       12.11279436      -0.59420039      18.19456384       0.01055475      -0.00587071      -0.00239575
C       11.89741575       1.50087590      16.60617743       0.00276266       0.00895840      -0.01163266
H       11.73760117      -1.18622130      19.02328769      -0.00176546       0.00067467      -0.01070249
H       13.17107369      -0.38207571      18.30347026       0.00286191      -0.00032138      -0.00320118
H       11.93291462      -1.10292404      17.25831908      -0.00170476       0.00188746       0.00694706
H       11.42571625       0.89482895      15.84055283      -0.01165358      -0.00281549      -0.01709290
H       12.97461948       1.38757373      16.56813923       0.02825411      -0.00770879       0.00601980
H       11.61026412       2.53222676      16.46204020      -0.01251626       0.03168094      -0.00073804
S       14.96897476       5.80478591       9.77572666       0.00893115       0.00195567       0.00936393
O       14.72113660       4.33745743       9.73110092       0.00883783       0.00100584      -0.02136490
C       13.43618887       6.64922472      10.10133294       0.00410061      -0.00479654      -0.00455930
C       15.13723516       6.37644873       8.08743139      -0.00084037      -0.00298078       0.00303908