708
Lattice="19.89 0.0 0.0 0.0 19.89 0.0 0.0 0.0 19.89" Properties=species:S:1:pos:R:3:forces:R:3 energy=-1046649.9387761292 free_energy=-1046649.9387761292 stress="-0.0009221088296568939 5.7677390244094514e-06 1.6839684477711292e-05 5.7677390244094514e-06 -0.0013443841201123217 -0.00012331934212975442 1.6839684477711292e-05 -0.00012331934212975442 -0.001539847921533195" pbc="T T T"
C       15.12472415      11.26760087       8.33494718      -0.01984183       0.00105720      -0.01169176
C       14.01794766      10.50623956       7.96210795      -0.00552351      -0.02343253       0.01020661
C       12.97662861      10.31191513       8.90179447      -0.00998011      -0.01049438       0.00617859
C       13.10336560      10.88583600      10.17448142      -0.00036845       0.00434237       0.00335874
C       14.20543870      11.63103487      10.52637654       0.00251170       0.00338516      -0.01267476
C       15.22285605      11.81978781       9.59125761       0.00427285      -0.01852308      -0.01006807
H       15.91988276      11.41955328       7.61841292       0.00245721      -0.00297024       0.02030322
H       12.30736267      10.72367074      10.88131747      -0.00002985       0.00417406       0.00365275
H       14.28261133      12.04073066      11.51996638       0.00658807      -0.00394108      -0.01060919
H       16.11360063      12.37256305       9.85215623      -0.00936097      -0.00834501       0.00378572
N       11.81018685       9.53952111       8.71124058       0.00151369      -0.01017321      -0.01463441
N       11.60958581       9.07390505       7.56528295       0.01855756      -0.01357469      -0.01842288
C       10.50031462       8.20092284       7.43637194       0.00173465       0.00752047      -0.00014868
C       10.50339159       7.40602786       6.29230901       0.00400525      -0.00620891       0.01214530
C        9.50633745       8.03980895       8.39805868       0.00005084       0.01336537       0.00453912
C        9.57154787       6.40212603       6.12650545      -0.01154154       0.01993724      -0.00632213
H       11.27738166       7.54354595       5.55752347       0.01485772      -0.00685153       0.02498366
C        8.56460219       7.03990933       8.24908655       0.00032570       0.01579666      -0.00262244
H        9.48810699       8.68351619       9.26286341      -0.00173098       0.01096059       0.01285866
C        8.62304270       6.23497478       7.12093424       0.01100218      -0.00528553       0.00753926
H        9.60069193       5.74102025       5.27382745      -0.00059610       0.02107916      -0.00731264
H        7.78751607       6.87922530       8.98187403       0.00593369      -0.00211147       0.00070782
N       13.98706520       9.91495707       6.71296463      -0.00008819       0.01196595       0.00039609
H       14.47779643      10.41656483       5.99506867       0.01530519      -0.00248785       0.00020258
H       13.06166245       9.59678914       6.47125512       0.00707476       0.00340737       0.00659178
N        7.66031611       5.13192107       6.99526778       0.01270617      -0.00756555       0.00775322
O        6.85963579       4.96718460       7.89226264       0.01032653      -0.00307843      -0.00244409
O        7.72884369       4.43065446       6.00337377       0.00678731       0.00182270      -0.00395659
S        7.65644082       9.37380611      17.76329821       0.01116249      -0.00225941      -0.00020968
O        8.36535019       8.34377626      18.61610421      -0.00744013       0.00990026       0.02919847
C        7.81199417      10.92610163      18.63452490      -0.00185785       0.00130022      -0.00029917
C        5.89691734       9.16901137      18.00286785      -0.00015132      -0.00142734      -0.00526404
H        8.85328838      11.23907287      18.59777535       0.00111676       0.00263560      -0.00774823
H        7.47166545      10.77984835      19.65794785      -0.00234377      -0.01109493       0.00413191
H        7.18317346      11.66419919      18.14315797      -0.02089416      -0.01239472      -0.00552081
H        5.41237561       9.97089850      17.45382178       0.00129081       0.00238748      -0.00692786
H        5.66025826       9.21975397      19.06464969      -0.00247520       0.00925229       0.00102343
H        5.60004367       8.21862887      17.57067440      -0.00816411      -0.00245875      -0.01016424
S       11.12583140       6.86036529      16.58115046      -0.00771041      -0.01107931      -0.00859682
O       12.04844370       6.28731483      15.52851678      -0.01596263       0.00932021      -0.02811034
C        9.50647888       6.14989567      16.31202657       0.00026950      -0.00331129       0.00740297
C       10.70227117       8.51633655      16.04448310       0.00376635      -0.00090541       0.00743417
H        9.55731820       5.09334963      16.56361941       0.00187063      -0.00174674      -0.00200858
H        9.18865581       6.28137082      15.28121590       0.02236204       0.00941003       0.01020918
H        8.83244689       6.65408112      16.99880321      -0.00277285      -0.00374781       0.00083543
H       10.10587093       8.97695926      16.82593118      -0.00087630       0.00565482       0.00152733
H       10.13525663       8.47702455      15.11527597       0.00705893      -0.01241138       0.00646215
H       11.62231651       9.08389067      15.93017696       0.00725982      -0.00042147       0.00301477
S       16.11482667       1.29820733       9.32997118       0.00424262      -0.01047137       0.00583476
O       15.85483110       1.87693415      10.69108117      -0.01847004      -0.00855241       0.00229291
C       17.68949876       1.95110570       8.79109489       0.00582076       0.00218414      -0.01112605
C       15.12169756       2.21080269       8.13699336      -0.00587948       0.00202176      -0.00412151
H       18.47069669       1.46789576       9.36802046       0.00379081       0.00596170      -0.00306961
H       17.70571670       3.02939262       8.93349729      -0.00538626       0.00459713      -0.00800365
H       17.81196722       1.70714688       7.74215270       0.00264481      -0.00074418      -0.01577560
H       15.48036923       1.95487440       7.14190230      -0.00201677      -0.00676086      -0.00792474
H       15.22455537       3.27259298       8.34236033       0.00080019       0.00969677       0.00376701
H       14.08394346       1.90348994       8.23868452      -0.01088528       0.00014536       0.00929342
S       17.03915248      15.93399370      12.17361004       0.00576135      -0.01401023      -0.01597601
O       16.33126784      17.05752527      11.46157902      -0.00042760      -0.00409914      -0.00150854
C       18.48331128      15.54612306      11.19090803       0.00609344      -0.00145458      -0.00725620
C       16.11725868      14.45428399      11.76639704      -0.00731396      -0.00449574       0.00388941
H       19.12711717      16.42026343      11.24352722       0.00307955       0.00165241       0.00145897
H       18.18053319      15.33641259      10.16749192       0.00112922      -0.00302580      -0.00019614
H       18.97619404      14.68189601      11.63311499      -0.01398433      -0.00737283      -0.00019547
H       16.57895879      13.57989473      12.21154198      -0.00509991      -0.00277381      -0.00336096
H       16.07970898      14.35880605      10.68392552       0.01278677       0.00280612       0.00774268
H       15.11396462      14.57707232      12.16114839      -0.00149756       0.00885529       0.01111713
S       17.63896031       7.82101083       9.30386127       0.00162870      -0.00201787       0.00116119
O       17.20646199       6.39404225       9.18591438      -0.00136704      -0.00016451      -0.00099712
C       16.44829751       8.68185335      10.33753004       0.00156153      -0.00031838      -0.00528167
C       17.18985291       8.61553284       7.75755205       0.00160128       0.00201489       0.00108480
H       16.46848071       8.18582247      11.30345443      -0.00915652       0.01233306      -0.00216626
H       15.45228308       8.63188148       9.90271595      -0.00066787       0.00502375       0.00437874
H       16.76400848       9.71762995      10.44860345      -0.00045911      -0.00292472      -0.00451866
H       17.40501611       9.67746941       7.82359095       0.00571031       0.00274921      -0.00172219
H       16.13267420       8.45789540       7.55347864       0.00053845      -0.00132630      -0.00106168
H       17.80158215       8.15755582       6.98630666      -0.00270941       0.00539755      -0.00417846
S       16.11072399       6.97808351       1.45389421      -0.01020735      -0.00918125      -0.00117525
O       17.14714236       5.98739106       1.01760720       0.00138191       0.00376634      -0.00207382
C       14.49188111       6.25557405       1.16384633      -0.00155353      -0.00393238      -0.00577438
C       16.06586175       8.25411884       0.19734199      -0.00287795      -0.00173107       0.00112501
H       14.37989676       5.43601921       1.87031049      -0.00661430       0.00048224      -0.00748849
H       14.41618107       5.88555052       0.14231011       0.01270623      -0.00075192      -0.00327394
H       13.75020466       7.02490173       1.35988072       0.00884701      -0.00035534       0.00573745
H       15.45102561       9.07381902       0.55344306      -0.01217340      -0.00745101       0.00461173
H       15.69252204       7.85819602      -0.74484465      -0.00424520      -0.00375146      -0.00012667
H       17.09726638       8.58114278       0.09350285       0.00174797      -0.00416536       0.00428070
S       19.07880015      17.23839785       2.74571143       0.00405199      -0.01534838       0.00984121
O       18.14736965      17.51310293       3.88750283      -0.00399696       0.00590151      -0.00235380
C       18.15793375      17.56135028       1.23522224       0.00417233      -0.00155177       0.00009930
C       19.18668542      15.45174920       2.57710713      -0.00374020       0.00276836       0.00270985
H       17.97314775      18.63210172       1.18357718       0.00618642       0.00648296       0.00022866
H       17.22500658      17.00492283       1.24721839      -0.00268291      -0.00144674      -0.00242268
H       18.77679933      17.26494012       0.39174154       0.00120717      -0.00159074      -0.00687089
H       19.61969427      15.20835370       1.60889689      -0.00450821       0.00018768       0.01409523
H       18.19930381      15.01184076       2.68648034       0.01107803      -0.00109544      -0.00174041
H       19.85932972      15.08756992       3.34797170      -0.00748526       0.00508146      -0.00829233
S       17.31703314      10.96246888       3.17885543      -0.00339251      -0.00391087       0.00074761
O       17.92921129      12.32867451       3.15573689      -0.00325935      -0.00315814      -0.00266889
C       16.89462679      10.63623193       4.89370384      -0.00479710       0.00794992       0.01218159
C       18.64785593       9.76373772       3.02434111       0.01073680       0.00003427      -0.00467759
H       16.06724471      11.29915188       5.12783299      -0.01419617       0.01353087      -0.00038197
H       17.72829030      10.89308470       5.53900024       0.01149190      -0.00351294       0.00477905
H       16.59448292       9.59785207       5.01595138       0.00031947       0.00044441      -0.00805831
H       18.23842128       8.76289603       3.15185973      -0.01065013       0.00757532       0.00669019
H       19.44615058       9.96017829       3.73846586       0.00171626       0.00477302       0.00993167
H       19.03437523       9.86070802       2.01295733       0.00075830       0.00189498      -0.01462660
S        6.17874252      16.47861460      11.19029808       0.00270868      -0.00386695      -0.00238014
O        4.88768310      15.94743403      11.75171050       0.00121375       0.00209946       0.00719324
C        5.82034489      17.18230915       9.58341522      -0.00181510       0.00599938      -0.00608984
C        7.09852163      15.06128721      10.58825573       0.00693141      -0.00196679      -0.00325825
H        5.30970491      18.12788682       9.72849184      -0.00126522       0.00917681       0.00800799
H        5.17399400      16.50850376       9.02514907      -0.00988157      -0.00441632       0.00649697
H        6.77123344      17.35608175       9.08910181       0.00388236       0.00334376      -0.00893154
H        7.95926323      15.43109454      10.04087411       0.00861225       0.01167688       0.00112665
H        6.45624003      14.45097623       9.95979452       0.00448289       0.00251583      -0.00846045
H        7.41749736      14.48368900      11.45345903      -0.00003490      -0.00299356       0.00328881
S        2.72828262      13.16778662       2.30205407       0.00586410      -0.00348686       0.00319736
O        2.17371166      14.07777153       3.36102490      -0.00246747       0.00578758      -0.00673255
C        1.50320805      11.90975539       1.95169472      -0.01161428      -0.00213747      -0.00458432
C        3.93603502      12.14155280       3.12250804       0.00611117      -0.00789493      -0.00252626
H        0.65426241      12.40993247       1.49574366      -0.01293243       0.01254405      -0.00848925
H        1.22148685      11.39597704       2.86624705       0.00080135      -0.00467101       0.00706650
H        1.93900074      11.21585213       1.23595633       0.00737726       0.00379550      -0.00836132
H        4.35867127      11.43993902       2.40745405      -0.00163931      -0.00478136      -0.01174552
H        3.48277639      11.61805324       3.96217029      -0.00778181      -0.00248161      -0.00814688
H        4.71072780      12.82580843       3.46067372       0.00545806      -0.00039123      -0.01354104
S        9.26291684      19.15335476      10.17814249      -0.00726328       0.00300817      -0.00351726
O        9.01229238      17.70389952       9.86290643       0.00698516      -0.00454436       0.01512884
C        9.49064772      19.27010886      11.95213048       0.00199885       0.00280320       0.00909223
C        7.68745779      20.00641972      10.13878319      -0.00780228       0.00783049      -0.00448218
H       10.46959965      18.86793743      12.19699857       0.01185945      -0.00458773       0.00303535
H        8.69319386      18.70917445      12.43403600      -0.00349660      -0.00026864       0.00628193
H        9.45639505      20.32229871      12.21871119       0.00441950       0.00866246       0.01007871
H        7.87138597      21.03654790      10.43525143       0.00686276       0.00707242      -0.00186564
H        6.99921638      19.54185208      10.84204036      -0.00182570      -0.00207518      -0.00309661
H        7.30702748      19.95602136       9.12098197       0.01085703      -0.00369863      -0.01485550
S        3.25517203       7.95374181      15.07717261       0.00203903       0.00458386       0.00572383
O        2.96729072       8.16225806      16.53336553       0.00180812       0.00090837       0.00757319
C        2.64451730       6.30925169      14.66892028      -0.00034685       0.00045411       0.00379946
C        5.00478917       7.57173788      14.93435475       0.00225814       0.00177728      -0.00249551
H        1.56091347       6.33306968      14.75013245      -0.00146252      -0.00192551       0.00837317
H        3.06606496       5.59121413      15.36914788      -0.00069561       0.00211075       0.00843873
H        2.93060946       6.06438907      13.64900264      -0.00292823      -0.00140195       0.00164925
H        5.21603892       7.19680726      13.93763893       0.00022135       0.00331220      -0.00405721
H        5.25939647       6.82301363      15.68142245       0.00114191       0.00403033       0.00090238
H        5.56241163       8.49502630      15.07811945       0.00033647       0.00267855      -0.00253818
S        6.42079847       9.00564178       2.25470795      -0.00139933      -0.00067532       0.00048494
O        5.70514487       9.97286069       1.35184359      -0.00264710       0.00829381       0.00674572
C        8.15767445       9.44490084       2.20345377       0.00840180       0.00110132       0.00571491
C        6.55848481       7.45694976       1.36923734      -0.00164644      -0.00374544      -0.00572468
H        8.22184852      10.48995950       2.48946224       0.00371319       0.00794534       0.00400047
H        8.55402564       9.28461893       1.20293933      -0.00413371      -0.00863623      -0.00390269
H        8.68727720       8.86465058       2.95290579      -0.00299302      -0.01641743       0.01036993
H        7.14020495       6.74814767       1.95494701       0.00532595       0.00592148       0.00877599
H        7.03897559       7.63307289       0.40864966       0.00740663       0.01301960      -0.00311847
H        5.54945019       7.07327857       1.23838977      -0.01151022       0.00434942      -0.00630974
S        5.30067519       3.46393023       2.51656565      -0.00591869       0.03754930       0.01151098
O        3.87393415       3.12648008       2.79367324       0.00201224      -0.00743432      -0.01262964
C        6.34419676       2.25517212       3.35154970       0.00854171      -0.01637808      -0.00290682
C        5.71368976       4.84104102       3.59776648      -0.00307753      -0.00105685       0.00229639
H        6.05176561       1.27253071       2.99200618       0.00033931      -0.02994688      -0.01118382
H        6.20682876       2.32195481       4.42698614       0.00105220       0.00006255       0.01219080
H        7.37897552       2.46269577       3.09205451       0.01481007       0.00590047      -0.01119189
H        6.78481926       5.02311648       3.56054523      -0.01146662      -0.00641937       0.00073861
H        5.38752163       4.60103329       4.60715084       0.00317803      -0.00102480      -0.01605960
H        5.17028088       5.70806802       3.23655981       0.00259380      -0.01266578       0.00473555
S        3.67316892       8.06438895       6.03397004       0.00684423      -0.00180325       0.01225704
O        2.55279056       8.05392105       7.03528702      -0.00601764       0.00340347       0.00161199
C        3.09406580       7.25573820       4.55142913       0.00524068      -0.00103935      -0.00571714
C        4.82515446       6.79525253       6.56011189       0.00961978      -0.00737749      -0.00408007
H        2.19991095       7.78574804       4.24330178      -0.00075026       0.00236951      -0.00561394
H        2.90937707       6.20359325       4.75089056       0.00348088      -0.00694914       0.00189235
H        3.86021803       7.39210560       3.79040482       0.01080343      -0.00025945      -0.00874445
H        5.61630436       6.71686417       5.81641735       0.00354181       0.00202568      -0.01618272
H        4.28882239       5.85301650       6.65171055      -0.00743798       0.00270313      -0.00279673
H        5.24714590       7.08349064       7.52008956      -0.00156534      -0.00073897      -0.00211318
S       16.51619938       1.73864935      -0.51760239       0.00270789       0.00089901       0.00994942
O       17.85858531       1.48581602       0.09706382       0.00401113      -0.00020356       0.01195533
C       15.66538341       2.96006532       0.48512571       0.00216622       0.00445186      -0.00124254
C       15.48755709       0.35576111      -0.03645081      -0.00143485      -0.00398866      -0.00003587
H       16.19402829       3.90517867       0.39181696       0.00070944       0.00546137       0.00183094
H       15.66188733       2.61819592       1.51992961       0.00558099      -0.00755052      -0.00872272
H       14.64948924       3.05408103       0.10371937       0.00223630      -0.00105350       0.00122559
H       14.44586272       0.58511711      -0.25320710      -0.00389480       0.00020823      -0.00332809
H       15.63320478       0.20366490       1.03088480       0.01056393       0.00126981      -0.00099257
H       15.81164281      -0.50819222      -0.61236344       0.01312191      -0.00338697       0.00146196
S        9.65932228      18.60146673       6.70459116      -0.00415040      -0.01641104      -0.01940117
O        8.62926645      19.55901590       6.14006275       0.00172046      -0.00365492      -0.00644416
C       10.91681798      18.39249438       5.45245001       0.00478814      -0.00194377      -0.00657333
C        8.94292189      16.96575252       6.57428887      -0.00280678      -0.00832461       0.00911113
H       11.55270802      19.27154006       5.48926141      -0.00097358       0.00523542       0.00146468
H       10.45167986      18.31108684       4.47574737      -0.00021273       0.00222829      -0.00241135
H       11.48822701      17.50776235       5.71882610       0.00302817       0.00108552      -0.00219932
H        9.71536892      16.25400331       6.84769894      -0.00333930      -0.00768627       0.00175137
H        8.58030160      16.79550068       5.56223566       0.00130639      -0.00082581       0.01783627
H        8.12582614      16.91858969       7.28693533      -0.00227871       0.00597955       0.00592427
S       10.41533103      13.98841127      12.49379289       0.00556648       0.01411490       0.00336068
O       10.37738603      14.24048781      13.97321021      -0.00623604      -0.00345597       0.00731391
C       12.13227927      13.71877793      12.06018172       0.00815878       0.00117618      -0.00082538
C       10.26145816      15.60395816      11.72962821      -0.00315924       0.00838376      -0.00662699
H       12.45530654      12.80206751      12.54819537      -0.00017315       0.00209593       0.01242856
H       12.72413131      14.56632575      12.39967668      -0.00188786       0.00760635       0.00161780
H       12.21405632      13.60959710      10.98126716       0.00655923      -0.00466237      -0.00324349
H       10.37948209      15.54357474      10.65307329      -0.00259409       0.00461090      -0.00834537
H       11.01002534      16.26220121      12.15856440      -0.00356640      -0.00036137       0.00234499
H        9.27268062      15.99350658      11.94533505      -0.00409590       0.00164351       0.00189353
S       12.17279261       3.02210111       3.08469335      -0.00523764      -0.00131347       0.00656939
O       12.16174893       4.13798283       4.10239587       0.01146455       0.00678109       0.00130923
C       10.51603814       2.34755308       2.99973137      -0.00878044      -0.00381953      -0.00499892
C       12.96515577       1.59060203       3.80489197      -0.00055760      -0.00335690      -0.00141400
H        9.86034751       3.15328569       2.67497913      -0.00155876       0.00977626       0.00411561
H       10.21522447       1.95752209       3.96928255      -0.00428174       0.00042555      -0.00049957
H       10.53491771       1.55436419       2.25622734      -0.00296013      -0.00854652      -0.00806052
H       12.74762931       0.75085231       3.14699679       0.00362461      -0.00400735      -0.00629331
H       12.56476254       1.39751020       4.79789058       0.00029634      -0.00210518      -0.00045717
H       14.03775633       1.75793820       3.83321446      -0.00159245       0.00627935      -0.00180341
S        4.12588187      18.37396153       4.61180684      -0.00812586      -0.02042580      -0.01822180
O        4.68944906      18.57474380       3.23359253       0.01764350       0.01463204      -0.00595177
C        5.52208733      18.03885634       5.68552407       0.00578278       0.00164076       0.00734335
C        3.38092853      16.74238583       4.67813240      -0.00621805      -0.00264098      -0.00130883
H        6.12795224      18.94018107       5.72777834       0.01650820       0.00995792       0.00386094
H        6.11185859      17.22340712       5.27348046      -0.00522719      -0.00835056      -0.00862307
H        5.13459891      17.82210383       6.67523351      -0.01126325      -0.00281650       0.00913902
H        3.04913331      16.57795666       5.69992344       0.00491166       0.00226753      -0.00085129
H        4.08475549      15.97561617       4.36883394       0.00360073       0.02425126       0.00199353
H        2.53662063      16.74214058       3.99563462      -0.00354819      -0.00682002       0.00767623
S        7.91881436      10.97439635       6.13357407      -0.00140247       0.00075672      -0.00288002
O        8.96718795      10.33718594       5.25348985      -0.00197474      -0.00063787      -0.00435536
C        6.77128302       9.68148217       6.58591879      -0.00190606      -0.00151945       0.00179859
C        6.78152445      11.81380404       5.03974141      -0.00650434       0.00389049      -0.00136598
H        7.26420849       8.99814681       7.26794257       0.00254406       0.00105258       0.00263117
H        6.45941263       9.16707805       5.68031701      -0.00540825      -0.00522840       0.00278385
H        5.93294351      10.16582378       7.07641095      -0.00129649       0.00222153       0.00531929
H        5.92101043      12.08553952       5.64494717      -0.01019566       0.00350382      -0.00167096
H        6.48960546      11.13620442       4.23996244      -0.00295668       0.00212960      -0.00412706
H        7.25418489      12.71022661       4.64524524       0.00114264       0.00257313       0.00108210
S        1.94213129      16.85464433       8.90009453      -0.00585984       0.01014322      -0.00216972
O        3.07357234      16.58129469       7.94803408       0.00310662       0.00526341       0.00579951
C        2.46816639      18.19880333       9.96889385      -0.00535346       0.00361962       0.00028536
C        1.99165556      15.56266392      10.13116951      -0.00794940      -0.00114786      -0.00466610
H        2.79728876      18.98630683       9.29377923      -0.00701296       0.00373745      -0.00084962
H        3.27771967      17.87318662      10.62381205      -0.00781390      -0.00218439       0.00048858
H        1.60809737      18.49832158      10.56475372      -0.01040354      -0.01079032      -0.00323084
H        1.36861894      15.87021813      10.96709368      -0.00873657      -0.00534411       0.00175627
H        3.02094660      15.42916049      10.45483199      -0.00217986       0.00823511      -0.00410989
H        1.61824691      14.64198424       9.69425862      -0.00955035      -0.00386654      -0.00490216
S       13.43688528      16.89714936       8.20413770      -0.00432229      -0.00271789       0.00243654
O       12.06257931      16.56496774       7.70659434      -0.00670117       0.01135960       0.00138949
C       13.69027390      15.88176683       9.65456808       0.00023678      -0.00428865       0.00494718
C       13.27189368      18.46740262       9.05466810       0.00330965       0.00278487       0.00152954
H       13.78831376      14.85753859       9.30458617      -0.00141080      -0.00457694       0.00316987
H       12.81534944      15.98938679      10.29285972       0.00122196      -0.00098076       0.00792428
H       14.59018530      16.22074024      10.16268036       0.00471654      -0.00801656       0.00421805
H       14.13476826      18.63387927       9.69761008       0.00726331       0.00746479      -0.00126785
H       12.34268621      18.43407928       9.62113408       0.00158346       0.00418082       0.00204659
H       13.19532105      19.25562634       8.30941329      -0.00390068      -0.00653394      -0.00918887
S        2.72889334      16.86488297      15.41018013       0.01132790      -0.02169354       0.01136020
O        1.90343348      15.88456195      16.20125640      -0.01672609      -0.00455821       0.00745668
C        2.04193497      16.87023780      13.75595138       0.00168855      -0.00281637      -0.00585782
C        4.27483620      16.05143264      15.00473476       0.00481982      -0.00285718      -0.00459212
H        1.16110777      17.50410226      13.73935728       0.00550086       0.01050684       0.00571205
H        1.76213522      15.84845924      13.51868516       0.00576691      -0.00730541      -0.00276030
H        2.79051174      17.24344683      13.06093474       0.00074307      -0.00018610      -0.01122534
H        4.82284978      16.69561082      14.32220742      -0.01079345       0.00556566      -0.00841318
H        4.07084054      15.09050610      14.54005738      -0.00038078       0.00395663      -0.00090773
H        4.81832648      15.91158216      15.93660878      -0.00646255      -0.00331866      -0.00464387
S       12.30943312       1.34543943      17.57441826       0.00409422      -0.00645063      -0.00217997
O       12.50363817       1.59583628      19.03920559      -0.00422473      -0.00400677       0.00336030
C       13.94648701       1.14100240      16.86352503       0.00767044      -0.00068966      -0.00344330
C       11.96280723       2.93029849      16.81176753      -0.00122619       0.00729775      -0.00171563
H       14.36421418       0.20095303      17.20652477       0.00492790       0.00228690       0.00942433
H       14.57920886       1.95980602      17.19346210      -0.00368270       0.00552493       0.00477735
H       13.84147329       1.12106558      15.78242978       0.00834341      -0.00010583      -0.00654191
H       12.04182080       2.81728158      15.73277939       0.00025815      -0.00284377      -0.00732422
H       12.65875720       3.67844850      17.18830091       0.01039012       0.00740645       0.00465334
H       10.93760560       3.18316340      17.06872102      -0.01013396      -0.00260622      -0.00089315
S       13.63756757       6.00992546       9.80538889       0.00882353      -0.00176705      -0.00396434
O       13.93444890       4.55471206       9.90189212      -0.00441344      -0.00197559       0.00574193
C       11.86603795       6.19749864       9.54624658      -0.00861868       0.00322889       0.00053319
C       14.12511602       6.52829639       8.15327496       0.00195936       0.00487650      -0.00547825