708
Lattice="18.65 0.0 0.0 0.0 18.65 0.0 0.0 0.0 18.65" Properties=species:S:1:pos:R:3:forces:R:3 energy=-1046647.4256799374 free_energy=-1046647.4256799374 stress="-0.008603420643343249 0.00016438965261149455 0.0007208474800612288 0.00016438965261149455 -0.009531365988902507 -0.0005082884723556022 0.0007208474800612288 -0.0005082884723556022 -0.010772158911320096" pbc="T T T"
C       15.90690943      11.13528222       8.96404065      -0.02467593       0.01136229      -0.00124274
C       14.83146033      10.42725117       8.42174362       0.01627412      -0.03769019      -0.00002170
C       13.76048966      10.06750422       9.26855091       0.00794660       0.00364386       0.00225375
C       13.84746974      10.40020678      10.62473169       0.01661604      -0.02355771       0.01073493
C       14.91936279      11.08258564      11.14843498      -0.01457922       0.03777248      -0.00151476
C       15.95814524      11.45457092      10.29983143       0.01620255      -0.02893994       0.00308787
H       16.70753679      11.45035540       8.30974380      -0.01871456      -0.02906032      -0.00341106
H       13.03936688      10.09171657      11.26711497      -0.01264482      -0.00468696      -0.01038964
H       14.92418222      11.35142109      12.18999644      -0.00821806      -0.01277193       0.01032150
H       16.81232848      11.98634227      10.68764932      -0.00524241       0.00848269       0.00095706
N       12.58758519       9.37098593       8.92481498       0.00720231       0.01696401      -0.00213358
N       12.50346264       8.90458241       7.76480678      -0.01051193       0.00725203       0.00205705
C       11.30809191       8.17724815       7.50416820      -0.00826714      -0.00966574       0.02865571
C       11.35885967       7.28683313       6.43959835       0.01084503       0.01020819       0.00781601
C       10.12948388       8.31257963       8.23327531      -0.02186330       0.00012294      -0.00211221
C       10.25085341       6.55999089       6.06001591       0.01727030       0.00364089       0.00267118
H       12.28365380       7.10476211       5.93080323       0.00353529      -0.00194509      -0.00447869
C        9.01769884       7.57377800       7.88430378       0.00094493      -0.03119079      -0.00383767
H       10.07668145       9.02517679       9.03971477       0.00081082       0.01524913      -0.00957993
C        9.09781923       6.72237788       6.79300643       0.00108798       0.00595024      -0.03095828
H       10.32470378       5.85784745       5.24873935      -0.01463502       0.01046524      -0.00206690
H        8.09004125       7.66386663       8.42805831       0.01541902       0.00227727      -0.00385482
N       14.88411029      10.04050195       7.09773952       0.01194793      -0.00991340      -0.01056911
H       15.42338994      10.64691617       6.50630905      -0.00507651      -0.00154213      -0.02391607
H       13.97618169       9.80777081       6.73595403       0.01369025      -0.00087000      -0.00796004
N        7.92895164       5.92230742       6.41570823       0.00295281      -0.00177156      -0.00571245
O        7.04431911       5.78746861       7.23453131       0.02384211      -0.02153296       0.02656662
O        7.90946589       5.43622063       5.30061795      -0.01711436      -0.00245453      -0.00015573
S        7.08837400       9.57598454      17.67851221      -0.01547951      -0.00617790      -0.00627482
O        7.96161883       8.37567837      17.99237887      -0.00011338       0.00721488      -0.00622036
C        7.54582663      10.86317032      18.82777279      -0.00315477       0.00033851       0.00048258
C        5.46870762       9.26417436      18.36446841      -0.00381868      -0.00687380       0.00265626
H        8.53042711      11.23331416      18.55394852       0.00514503       0.00226961       0.00420022
H        7.52172518      10.47031205      19.84307685      -0.00490848      -0.00320263       0.00643567
H        6.82238819      11.66317134      18.70631501      -0.00548322       0.00451830       0.00635939
H        4.89986117      10.16815396      18.16721025       0.00545111      -0.00492355       0.01009605
H        5.52716954       9.07828018      19.43311007      -0.00378864      -0.00764999      -0.00029597
H        5.01399569       8.43692241      17.82633953       0.00016407      -0.00090018      -0.00108134
S       10.84814485       6.75440779      15.66298026      -0.00540191       0.01175428      -0.01088537
O       11.62000141       6.24415266      14.46046983      -0.00462762      -0.00227661      -0.00498492
C        9.14768274       6.30844151      15.38720007      -0.00367633       0.00525256       0.00110971
C       10.61906884       8.50568825      15.42695900      -0.00205299       0.00372227      -0.00239929
H        9.07898498       5.22772216      15.45531791      -0.00008421       0.00421714      -0.00235919
H        8.83986700       6.64874914      14.40390186      -0.00391516       0.00136737       0.00220766
H        8.55008873       6.76796459      16.16974085      -0.00307277      -0.00006304       0.00434216
H       10.00211147       8.86590972      16.24771850       0.00019798       0.00304301      -0.00411921
H       10.11189688       8.68000866      14.47887427      -0.00068544       0.00324568       0.00434586
H       11.58036460       9.00808598      15.45838315      -0.00445279      -0.00076743      -0.00231949
S       15.85418546       0.92842596       8.31657801       0.00988431       0.00552689       0.00216933
O       15.57938643       1.24293106       9.76474284       0.00570686      -0.00178495       0.00493405
C       17.43125621       1.65383258       7.94344819       0.00407412       0.00567497      -0.00731962
C       14.91399770       2.09044681       7.32989265       0.00298963       0.00332845      -0.00338474
H       18.20066713       1.08204886       8.44690649      -0.00753110      -0.00517925      -0.00699268
H       17.41611893       2.68505789       8.28434597      -0.01025339       0.00020108       0.00140900
H       17.58891772       1.61580136       6.86981907       0.00579370      -0.00564164      -0.00654855
H       15.31208430       2.06120408       6.31690580      -0.00163257       0.00177221      -0.00842699
H       15.04642712       3.07856539       7.76388291       0.00096058       0.00455007      -0.00030870
H       13.86685072       1.80014716       7.33477448       0.00173268       0.00094444      -0.00024331
S       17.33579479      15.53633376      11.81842354      -0.00985730      -0.01503323      -0.00623999
O       17.00766754      16.34908210      10.59653987      -0.00354130      -0.00713368      -0.00258678
C       18.68971931      14.45682546      11.38426927       0.00645941       0.00100671       0.00368284
C       16.06460494      14.28734990      11.90830421      -0.00625900      -0.00535341      -0.00020840
H       19.58842019      15.06618119      11.32275674       0.00560086       0.00829849       0.00506277
H       18.47801208      14.00082993      10.41811348      -0.00147371       0.00451649       0.00469211
H       18.77929703      13.70162841      12.16388023      -0.00011575       0.00114287       0.00411055
H       16.36556380      13.47986558      12.57171012       0.00159402       0.00182862       0.00048012
H       15.86614259      13.92590130      10.90312576       0.00302695       0.00950130      -0.00073519
H       15.17401619      14.75843188      12.31067160       0.00162015       0.00518967      -0.00006045
S       18.16573771       7.52728197       9.80621402      -0.00833358       0.00524605       0.01134292
O       17.82185995       6.08678772       9.62423417      -0.00916119       0.00841550      -0.01582858
C       16.86558670       8.31099407      10.77114208      -0.00931992       0.00458102       0.01446015
C       17.85662980       8.36184113       8.24386793       0.00453918      -0.00531398      -0.00453633
H       16.70149329       7.65618730      11.62086348       0.00377962      -0.01149806       0.00854053
H       15.94487802       8.45056602      10.21366688       0.00114746      -0.00539511      -0.00621666
H       17.21903898       9.27206984      11.12934439       0.01460034       0.00604337      -0.00517305
H       17.63979153       9.40672748       8.43105429       0.00524396      -0.00698852      -0.00087313
H       17.01364396       7.89237707       7.74610673      -0.00775019      -0.00643946       0.01000425
H       18.75598720       8.28683856       7.64136070       0.00506185       0.00753795      -0.00473978
S       15.47295568       7.14439141       1.86359266      -0.00654462      -0.00658684       0.00045697
O       16.21853658       5.90627961       1.48999226       0.00401274       0.00104462       0.00475873
C       13.70830417       6.83093981       1.65623546      -0.00397079       0.00170542       0.00309163
C       15.70148114       8.32181865       0.54393302      -0.00447235      -0.00007062       0.00949008
H       13.41702648       6.05300960       2.35868416       0.00388051       0.00266955       0.00696266
H       13.50370102       6.52099726       0.63460993       0.00687207       0.00569243       0.00334190
H       13.19454554       7.75599287       1.89619787      -0.00917543       0.00073457      -0.00459408
H       15.37038883       9.29109808       0.89777903       0.00233977       0.00540236       0.00171913
H       15.17358601       8.02707750      -0.35831469      -0.00355852       0.00745799       0.00960003
H       16.77566126       8.34038904       0.38443589      -0.00863665      -0.00102194      -0.00510678
S       18.76314594      16.75658725       3.62168490      -0.00871746       0.00912562      -0.03316306
O       17.67231682      17.68783159       4.05988547       0.00121113       0.00558796       0.00868520
C       18.82724309      16.83716395       1.82959305       0.00347999      -0.00661941      -0.00382907
C       18.03288803      15.12476231       3.69599804       0.00604400       0.00199792       0.00319481
H       19.14398852      17.83321771       1.53655321       0.00469538      -0.01655175       0.01423766
H       17.82246016      16.64854555       1.46184512       0.01333397       0.01629308      -0.00034820
H       19.52400918      16.08549976       1.46537579       0.00707882      -0.00070661      -0.00043007
H       18.62770390      14.40350887       3.13854459      -0.00187710      -0.00129354      -0.00107452
H       17.01912898      15.22298838       3.32762038       0.00664428       0.00376575      -0.01251327
H       17.98642628      14.83985896       4.73871105       0.00316720      -0.00973780       0.00672084
S       17.63146830      10.60927417       2.45471892      -0.01746831       0.00129197      -0.00293551
O       18.29400946      11.91587287       2.18374315      -0.00434167       0.00847440      -0.00899428
C       16.84009527      10.77815664       4.06469946       0.00417971       0.00363723       0.00516420
C       18.88621149       9.44662779       3.01135926       0.00322965      -0.00439983      -0.00090901
H       15.95747625      11.40284743       3.96476338       0.00616569      -0.00202657      -0.00196411
H       17.56364429      11.25195174       4.71836037      -0.00565935       0.00093786       0.01676025
H       16.55766963       9.79988218       4.44286119       0.00370645      -0.00175336      -0.00949760
H       18.39363353       8.53204348       3.33513702      -0.00567527      -0.00650303       0.00244993
H       19.47087719       9.90145965       3.81086810       0.00676726      -0.00964625       0.01260127
H       19.52535907       9.22960755       2.15849194       0.00300522      -0.00688608      -0.00998537
S        6.76140062      16.26782319      11.38381708       0.00255555      -0.00547161       0.00041070
O        5.82963674      15.73241561      12.43091409       0.00640573      -0.00121745       0.00876033
C        5.74936355      16.61760112       9.95767405       0.00331948      -0.00666518       0.00261853
C        7.63345658      14.87606219      10.65056490       0.00884741      -0.00097327      -0.00310480
H        5.22899852      17.54991599      10.12317135       0.00809931      -0.00428139       0.00722173
H        5.03549787      15.80191176       9.85668228      -0.00548570       0.00054341      -0.00368589
H        6.39558950      16.73756470       9.09464957       0.00206711       0.00812438       0.00409777
H        8.39011815      15.29266320       9.99594135       0.00800266       0.00064315      -0.00529221
H        6.95455389      14.24946256      10.08234885      -0.01488408       0.01527871       0.00810979
H        8.08259040      14.30069094      11.45795172       0.00645466      -0.00237519      -0.00164983
S        3.51277325      13.00577008       2.17778833       0.00222704      -0.01588340       0.01054204
O        2.43584925      13.88030909       2.75357366       0.00951388       0.00129670       0.00307549
C        2.89775192      11.33543415       2.04069853       0.00030750       0.00268252       0.00415006
C        4.71375314      12.68367616       3.46476014       0.00220390      -0.00316791      -0.00260885
H        2.10319726      11.33414933       1.30029363       0.00464058      -0.01099955       0.00280280
H        2.53895056      11.01006950       3.01042526       0.00259514       0.00041876      -0.00474154
H        3.73264874      10.71773121       1.71310603      -0.00375620       0.00190965      -0.00160940
H        5.38741717      11.90975452       3.10465977       0.00172654      -0.00419465      -0.00261951
H        4.21739523      12.34498443       4.37320768      -0.00382192       0.00311474      -0.01008002
H        5.28200804      13.59580836       3.63143798      -0.01057290       0.00175955      -0.00323561
S        9.60100936      18.68656723      10.21844319       0.00859052      -0.00048099       0.00004483
O        9.18764533      17.32723447       9.74049113       0.00479103      -0.00110116       0.01374326
C        9.81948866      18.57567002      11.98683566       0.00079602       0.00602850      -0.00100067
C        8.14887262      19.71261556      10.20862308       0.00235135      -0.00766236      -0.00149142
H       10.65840076      17.92268128      12.20061883      -0.00446746       0.00116252       0.00004747
H        8.90813270      18.18315643      12.42569828      -0.00276088       0.00649399      -0.01033255
H       10.00542880      19.57491974      12.36759265      -0.00338976       0.00271633       0.00561863
H        8.47050977      20.71408387      10.47550354       0.00382958      -0.00954028      -0.00234487
H        7.42744109      19.34706301      10.93298044       0.00220348      -0.00444066       0.00313692
H        7.73937706      19.67465004       9.20299650      -0.00366336       0.00531359      -0.00052188
S        4.16216148       7.26042509      14.95886432      -0.00197352       0.00549535      -0.00210140
O        3.49395004       7.43642024      16.29594637       0.00253003      -0.00000894       0.00145728
C        4.42166651       5.50309105      14.72632259      -0.00123516       0.00348370       0.00075351
C        5.88431537       7.73123681      15.15784332       0.00050003       0.00041287      -0.00025234
H        3.44888992       5.01925286      14.75753896      -0.00476062       0.00082977       0.00031573
H        5.05617833       5.11781529      15.51531731      -0.00678572      -0.01001997       0.00160298
H        4.89461530       5.34385848      13.76041956       0.00034914       0.01118676       0.00163648
H        6.48236109       7.31594919      14.35036093      -0.00180454       0.00167855      -0.00457972
H        6.23954411       7.35725107      16.11690279      -0.00092758      -0.01539502      -0.00303364
H        5.93697735       8.81750719      15.12124930       0.00086231       0.00492640       0.00209868
S        6.88008656       8.38820831       3.48486004      -0.01292192       0.00150704       0.00369525
O        6.22322550       9.64173610       2.96668985       0.00247084       0.00414994      -0.00441415
C        8.64754083       8.67878187       3.58203353      -0.00749498       0.00101892      -0.00273670
C        6.92556050       7.24988254       2.11859234       0.00233918      -0.00458491      -0.00092409
H        8.86893721       9.29786975       4.45000897      -0.00382248       0.00124114      -0.00124929
H        8.97499389       9.15996305       2.66366983       0.00543658       0.00719022      -0.00235368
H        9.13527268       7.71366014       3.70146285       0.00203162       0.00344824       0.00036768
H        7.48678726       6.35980385       2.39381964       0.00273694      -0.00930241      -0.00103495
H        7.36217872       7.72704667       1.24324705       0.00390116      -0.00677442      -0.00859226
H        5.89705938       6.97213342       1.90400506      -0.00197085       0.00738355       0.00135182
S        4.66381187       3.54606213       3.14318801      -0.00027947       0.00700278       0.00905020
O        3.50047741       2.94507063       3.85644889       0.00584007       0.00543189       0.01249579
C        6.18704401       2.82200598       3.76664937       0.00312557      -0.00672849       0.00922741
C        4.98398235       5.14953235       3.86439527      -0.00045536       0.00706285       0.00296999
H        6.13892304       1.75081208       3.60519022       0.00196015      -0.01259966       0.00551582
H        6.32790417       3.05342686       4.81659274      -0.00130354       0.00763741       0.00933530
H        7.00310412       3.23982530       3.18104917      -0.00595975       0.01127681       0.00796343
H        5.93806130       5.48777079       3.48320828       0.00042011      -0.01278214      -0.00258974
H        5.01044021       5.07750899       4.94511620      -0.00112038       0.00140651       0.00098614
H        4.18845918       5.82060787       3.55666721       0.00079998       0.00282305      -0.00639745
S        3.82346507       8.85112162       6.30437207      -0.01015398      -0.00107660      -0.00201257
O        2.72654939       8.77619309       7.34405791      -0.00382099       0.00585745       0.00432307
C        3.16623193       8.10110506       4.82411659      -0.00269441      -0.00242993      -0.00338003
C        4.97523200       7.55296173       6.70065144      -0.00131342      -0.00126240       0.00076219
H        2.21515579       8.57871597       4.63004473      -0.00572844      -0.01095191      -0.01069238
H        3.04464107       7.02984500       4.96775029       0.00445413      -0.00001346       0.01018207
H        3.84794313       8.31477484       4.00268230       0.00767626       0.00929843       0.00781959
H        5.72525035       7.55020949       5.91406035      -0.00841408       0.00643595      -0.00982912
H        4.46912107       6.59025157       6.73268349      -0.00795737      -0.00046937      -0.00528992
H        5.44737585       7.77180670       7.65354825      -0.00202371       0.00224466       0.00405357
S       15.18082222       2.36887280       0.18920206       0.00155313      -0.00051478      -0.01903500
O       16.63371089       2.75406438       0.23840504       0.01370939       0.00680937      -0.01294149
C       14.23786939       3.68299288       0.93541458       0.01156554      -0.00979445       0.00284219
C       14.92362765       1.15602234       1.46120852      -0.00734476       0.00148765      -0.00028672
H       14.26433449       4.53385813       0.26307895      -0.00448782      -0.01226468       0.00294855
H       14.67328377       3.95715417       1.88960562      -0.00685675      -0.00678700       0.01447233
H       13.22044538       3.31220211       1.00861317       0.00771076       0.00402771       0.01106501
H       13.86449604       0.91451606       1.47140410      -0.01376351       0.00000404      -0.00367345
H       15.28330422       1.54494900       2.41186983       0.00805241      -0.00269295      -0.00084480
H       15.51775037       0.28868706       1.19258938       0.01028614       0.00899179       0.01181673
S        9.77612817      18.54302718       6.87575923      -0.00634376      -0.00613983       0.00864877
O        8.99582530      19.67628014       6.22922801      -0.00245674      -0.00786510       0.00916354
C       10.97473359      17.97234376       5.69582412       0.00395969       0.00011278       0.00599077
C        8.72453956      17.10178002       6.82390378      -0.00408689      -0.00004131       0.00222442
H       11.75913303      18.71525821       5.62400732      -0.00184944       0.01025111      -0.01028781
H       10.50689964      17.84262942       4.72947741       0.01068745      -0.00220828       0.00163111
H       11.36783932      17.03368710       6.07803219      -0.00920568      -0.00930093       0.00212410
H        9.28180018      16.29896625       7.29595021      -0.00991750      -0.00176209      -0.00430723
H        8.44320276      16.85907942       5.80173219       0.01323843       0.00114695       0.00102763
H        7.85544091      17.34917361       7.42503386      -0.00289542      -0.00819435       0.00460048
S       10.71974893      13.57654064      11.47160037       0.00521729      -0.00425815      -0.00459605
O       10.33325629      13.35285510      12.90247336       0.00396572       0.00290587      -0.00390455
C       12.44072480      13.12857784      11.32397972       0.00310262      -0.00223639       0.00122766
C       10.94178262      15.33887451      11.26074820      -0.00122349      -0.00205287       0.00322950
H       12.52523720      12.12388245      11.71577171      -0.00205261      -0.00039784       0.00257375
H       13.06583158      13.79112116      11.91877588      -0.00201223       0.00324318       0.00004666
H       12.73953007      13.14433328      10.27584682      -0.00280659      -0.00381847       0.00164970
H       11.23970700      15.53938461      10.23313204      -0.00405911      -0.00107661       0.00320899
H       11.66690512      15.69749191      11.98869447      -0.00031451      -0.00140988       0.00480095
H        9.98660056      15.82321745      11.41750334      -0.00427164      -0.00350374      -0.00244218
S       11.71839763       3.89584156       3.29583569      -0.00891912      -0.00007937       0.00013965
O       12.07322779       4.95180960       4.31523274       0.00500373      -0.00002765      -0.00553813
C       10.03512424       3.36168018       3.58312652      -0.00433913       0.00372085      -0.00068452
C       12.54257242       2.38521658       3.75065460       0.00276068      -0.00018244      -0.00310934
H        9.41701839       4.25333722       3.62372984       0.00214305       0.00371677       0.00027459
H        9.93764804       2.77913373       4.49649770      -0.00685683       0.00650484      -0.00434985
H        9.74487083       2.78405213       2.71013309      -0.00172127       0.00423327       0.00035368
H       12.22975082       1.61879560       3.04149482      -0.00234723      -0.00114426      -0.00223236
H       12.29763549       2.10714039       4.77533536      -0.00123975      -0.00607820      -0.00399895
H       13.60991497       2.55862935       3.64954821       0.00619133       0.00210639      -0.00091134
S        4.59708757      17.99298475       3.84377395      -0.00899328      -0.00100572       0.00216464
O        5.44283310      17.99968272       2.59905968      -0.00048590      -0.00131331      -0.00175668
C        5.71966298      17.55362119       5.17116193      -0.00739336      -0.00011193      -0.00703077
C        3.66720977      16.47208369       3.83357358      -0.00412808      -0.00136779       0.00476651
H        6.43082204      18.36355663       5.30938553       0.00130291      -0.01511116       0.00622762
H        6.24426201      16.64525792       4.88464375      -0.00350344       0.00444283       0.00036166
H        5.14920038      17.43583446       6.08837626       0.00579914       0.00475156      -0.00306818
H        3.10126597      16.43026605       4.75824204      -0.00201053      -0.00202742       0.00243995
H        4.33420168      15.62224473       3.71735232      -0.00025334       0.00602693       0.00132390
H        2.98114613      16.50459616       2.99489317       0.00200270      -0.01067975       0.00413617
S        8.10281057      11.33522291       6.79738299       0.00404474       0.00326972       0.00192009
O        9.34610216      10.64788826       6.27328111       0.00047389       0.00286214      -0.00383218
C        7.11537428      10.06011476       7.53414454       0.00229430       0.00162075      -0.00154622
C        7.03222925      11.61854807       5.39957916      -0.00031164       0.00451322       0.00107441
H        7.58889494       9.76165115       8.46132648       0.00414785      -0.00119387      -0.00348565
H        7.06354573       9.22460811       6.84181641      -0.00314670      -0.00020552      -0.00033857
H        6.13098241      10.46745669       7.72705169       0.00394556       0.00588920      -0.00159618
H        6.02365704      11.72997844       5.77735600      -0.00104404       0.00179868       0.00470269
H        7.10353200      10.77045566       4.72932785      -0.00132885       0.00230182       0.00072867
H        7.32870288      12.52546272       4.88452324       0.00313782       0.00613470       0.00231866
S        1.43206205      17.80821495       7.70396276       0.00044019       0.00053507      -0.00240792
O        2.33732757      17.56458138       6.52277332      -0.00277325      -0.00856903      -0.00045503
C        2.43167270      18.65676433       8.92558380      -0.00385813      -0.00414729      -0.00583788
C        1.29151967      16.27894354       8.61152794       0.00181135       0.00224556      -0.00149108
H        2.44402660      19.72143828       8.70625712      -0.00562315      -0.00727784       0.00200784
H        3.43856484      18.24613872       8.86016500      -0.00511474      -0.00162584       0.00210462
H        2.01133992      18.47902263       9.91273997       0.00424125       0.00076253      -0.00626726
H        0.56455027      16.43952424       9.40354173       0.00128020      -0.00417401      -0.00535633
H        2.25355735      15.98184552       9.01706948      -0.00084466      -0.00432233      -0.00321493
H        0.91450468      15.52074852       7.93354358       0.00227886       0.00293466       0.00324231
S       13.24497286      16.51669667       8.18659933       0.00368940       0.00161485      -0.00123660
O       11.88037848      15.90036527       8.07293847       0.00918949      -0.01308682       0.00496837
C       14.00751743      15.78347762       9.62066195       0.00373659       0.00036904       0.00203610
C       12.90242987      18.11145410       8.90154329      -0.00034898       0.00179441       0.00538279
H       14.13631988      14.73272692       9.38847606       0.00476728      -0.00072969      -0.00170279
H       13.33122776      15.89046802      10.45958563      -0.00410567       0.00176949       0.00049415
H       14.96940042      16.25612052       9.81952760       0.00698951      -0.00129724      -0.00019847
H       13.76563549      18.53090486       9.41177821       0.00646869      -0.00231080      -0.00121956
H       12.07962222      17.93965567       9.59291861      -0.00820025       0.00527682       0.00169672
H       12.55587015      18.78862081       8.12608561       0.00101208       0.00015450       0.00333829
S        2.58724580      16.88980502      15.55032167       0.00840930      -0.00942235      -0.00492070
O        1.86821553      16.05477748      16.59748157       0.00106128       0.00550352      -0.00504330
C        1.64189324      16.72126658      14.04272138       0.00121572      -0.00138811       0.00874853
C        3.96175581      15.89958586      15.02027604       0.00047352       0.00215155       0.00167861
H        0.77587804      17.36892561      14.07658167       0.00094865       0.00161746      -0.00688551
H        1.33096068      15.68284310      13.95038718      -0.00513199       0.00336684      -0.00694045
H        2.25722558      17.01032407      13.19778118      -0.00546795       0.00261011       0.00678650
H        4.35969255      16.29694067      14.09304548      -0.00223174       0.00014994       0.00906577
H        3.58949890      14.88610783      14.90440852       0.00877334       0.01270890       0.00272655
H        4.72772679      15.90874420      15.78812034      -0.00538415      -0.00285888      -0.00082715
S       11.49429576       0.75993705      17.84768278       0.01673042       0.00706276      -0.00175125
O       11.92478367       1.42988913      19.11503599       0.00685449      -0.01081977       0.01250711
C       12.45595562      -0.74953798      17.72178419      -0.00073650      -0.00064267       0.00282127
C       12.33707077       1.63231736      16.52998227       0.00297031       0.00356597      -0.00002019
H       12.13688290      -1.40661335      18.52632543      -0.00341029      -0.00289534       0.00119191
H       13.51133692      -0.50203399      17.82745742      -0.00264593      -0.00549654       0.00293399
H       12.24914767      -1.21361274      16.75995040      -0.00167957       0.00297195       0.00492272
H       12.07008822       1.17377477      15.58279677      -0.00437814       0.00269523       0.00865607
H       13.40874779       1.59165429      16.70984210      -0.00447244      -0.00287301      -0.00691595
H       11.99409523       2.66249266      16.55369956       0.00191142      -0.00167991      -0.00068218
S       14.67422263       5.78658987      10.19285671       0.00709490       0.00266468      -0.00665243
O       14.44966109       4.31346707      10.11986148      -0.00212923       0.00470939       0.00105130
C       13.08935506       6.53834372      10.49576989       0.00289394      -0.00140077      -0.00059439
C       14.87782843       6.38376817       8.51705057       0.00213162       0.00053068      -0.00206208