9
Properties=species:S:1:pos:R:3:forces:R:3 Malonaldehyde=T molecule=T energy=-7274.57975642542 free_energy=-7274.57975642542 stress="-inf inf -inf inf inf -inf -inf -inf inf" pbc="F F F"
C        0.14532180      -0.66861886       0.36757940       0.00382581       0.00282676       0.00032372
C        1.30106514       0.14106410       0.09037103       0.00081106       0.00417109       0.00405001
C       -1.08991273      -0.16449228       0.13397230      -0.00318302       0.00497728      -0.00091016
O        1.24277709       1.28751399      -0.35443735      -0.00020505      -0.00362144      -0.00051431
O       -1.32197818       1.04232714      -0.33981045      -0.00462628      -0.00667889       0.00182403
H        2.28637323      -0.30026944       0.29205911       0.00340903      -0.00268765      -0.00036456
F       -1.99135243      -0.73436695       0.32608933      -0.00344680      -0.00051765       0.00062283
H        0.26224198      -1.66602083       0.75831029       0.00031001      -0.00062408      -0.00292506
H       -0.43453589       1.46286313      -0.47413366       0.00310523       0.00215457      -0.00210650
