10
Properties=species:S:1:pos:R:3:forces:R:3 DMSO=T from=T PubChem=T CID=T 679=T energy=-15058.0681374783 free_energy=-15058.0681374783 stress="inf inf -inf inf -inf -inf -inf -inf inf" pbc="F F F"
S        0.16582193       0.00598356      -0.51992117      -0.02971992      -0.00083650       0.01044137
O        1.43768273       0.05178415       0.24390688      -0.00733440      -0.00031434       0.02124985
C       -0.88412795       1.30738885       0.14881239       0.01796165      -0.00792198      -0.01525081
C       -0.78780778      -1.36754800       0.14882179       0.01729635       0.00913497      -0.01521234
H       -0.42891873       2.25439020      -0.12636953      -0.01542605       0.00379947       0.00868860
H       -0.92078026       1.20883486       1.23216619       0.00037704      -0.00330222      -0.03765587
H       -1.87692191       1.22804636      -0.29078539       0.01484614       0.02933410       0.02828452
H       -1.78375636      -1.35983669      -0.29072081       0.01680341      -0.02802072       0.02816477
H       -0.83139904      -1.27188910       1.23216901       0.00009056       0.00332578      -0.03733149
H       -0.26569263      -2.27935418      -0.12637937      -0.01489479      -0.00519858       0.00862140
