680
Lattice="19.2 0.0 0.0 0.0 19.2 0.0 0.0 0.0 19.2" Properties=species:S:1:pos:R:3:forces:R:3 energy=-1023977.6780838032 free_energy=-1023977.6780838032 stress="-0.0009570697451653163 -0.0001765421852416792 0.00011277536519694703 -0.0001765421852416792 -0.0010862892705596455 -0.00020089269071269205 0.00011277536519694703 -0.00020089269071269205 -0.0016944841664632293" pbc="T T T"
S        7.07395573       9.51111305      18.30093996       0.00391782      -0.00378115       0.00226346
O        7.92484774       8.35194266      18.77250509       0.00086466      -0.01228994       0.01262566
C        7.39100637      10.87056112      19.41965788       0.00161069       0.00420582       0.00031778
C        5.39322767       9.19026244      18.83160807      -0.00241574       0.00145252      -0.00207577
H        8.40420324      11.22196798      19.24111397      -0.00225176       0.00738470      -0.00315053
H        7.24987807      10.52478644      20.44294299       0.00905208       0.00987835       0.00454166
H        6.69097705      11.66170147      19.16871154      -0.00640537       0.00214384      -0.00619105
H        4.83581058      10.10019621      18.62802366      -0.00149559       0.00355463      -0.00947549
H        5.38179790       8.94539572      19.89136295       0.00697698      -0.00642081      -0.00062238
H        4.98687216       8.38443934      18.22811083      -0.00164075       0.00301361      -0.00167733
S       10.61361901       6.88714440      15.96962809       0.00245455      -0.00086751       0.00245819
O       11.45095423       6.23871884      14.89451769      -0.00395416       0.00809301      -0.00377531
C        8.90192043       6.53822917      15.59830400       0.01846549       0.00427664       0.00232146
C       10.53568134       8.63478817      15.60255454      -0.00644000      -0.00575155      -0.00051359
H        8.75714368       5.46800835      15.71154025      -0.00579732       0.01527567       0.00221726
H        8.65592685       6.85149613      14.58598440      -0.00844086      -0.00617869       0.01083058
H        8.30352304       7.06409587      16.33927097       0.01046593      -0.00694424      -0.00685009
H        9.94937664       9.11427766      16.38319852      -0.00236347       0.00158054      -0.00152966
H       10.06306633       8.78442647      14.63292505       0.00470060       0.00285111      -0.00706359
H       11.54217347       9.04043633      15.61508910      -0.00816315      -0.00407523      -0.00204290
S       15.85945459       0.87836951       8.22788960      -0.00298166       0.00665265       0.00731368
O       15.80710618       1.02688183       9.72670000       0.00357396       0.00115350       0.01445275
C       17.42955494       1.53333821       7.68903641      -0.00785889       0.00661698       0.00354051
C       14.85263389       2.20257012       7.57030341      -0.00035673       0.00066276       0.00089452
H       18.20108690       0.85104330       8.03827274      -0.00362931       0.00589794      -0.00680917
H       17.56483095       2.52841237       8.10336722       0.00485645       0.00164698       0.01193124
H       17.41990407       1.58147117       6.60373158      -0.00892421       0.00266733       0.00341429
H       15.04221946       2.28104204       6.50170921       0.01099944      -0.00784213      -0.00003267
H       15.11411795       3.12046979       8.09331508       0.00711652      -0.00631929       0.00467713
H       13.80814196       1.94997002       7.73104326       0.00125438      -0.00224276      -0.00401269
S       17.42580406      15.50108137      11.89831275      -0.00018774      -0.00426522      -0.00732352
O       17.08549158      16.47584629      10.81006514      -0.00805748       0.00293368      -0.00109331
C       18.86523358      14.57421880      11.35955760       0.00312869      -0.00281924       0.00306140
C       16.24476169      14.15672787      11.76231638       0.00108035      -0.00288950      -0.00881655
H       19.72943258      15.23228589      11.41069776      -0.00268512       0.00177695       0.00644947
H       18.70281588      14.23414159      10.33747980      -0.00073493       0.00681399       0.00158742
H       18.98606601      13.73011769      12.03762092       0.00450562      -0.00608634       0.00018453
H       16.52145210      13.37150996      12.46342423       0.00811528      -0.00086399      -0.00562775
H       16.23434996      13.80154135      10.73299387       0.00329574      -0.00385716      -0.00975370
H       15.27755861      14.56516380      12.04160596       0.00154498       0.00149022      -0.00444291
S       18.49374541       7.93780195       9.55638998      -0.00480083       0.02206833       0.01096217
O       18.09614019       6.53662473       9.22050997      -0.00229578       0.02525780      -0.00064078
C       17.13411540       8.67703433      10.47652318       0.00209264      -0.01390280      -0.00434809
C       18.32209810       8.87788561       8.02924548       0.00399207      -0.00671264       0.00244806
H       16.96638761       8.02245888      11.33037471      -0.00413924       0.00483672       0.00467060
H       16.23827048       8.73786157       9.86258483       0.00690685       0.01394462       0.00383517
H       17.42850628       9.66322874      10.83362448       0.00067368      -0.02257030      -0.01448732
H       18.20262524       9.93967655       8.23462599      -0.00503697      -0.01516274       0.00393081
H       17.45153250       8.48894789       7.50485463       0.00223602       0.00864210      -0.00708930
H       19.22849316       8.72347911       7.44661165      -0.00111333       0.00524880      -0.01013249
S       15.77226835       6.78707104       1.29718446      -0.00255934      -0.00015549       0.00347005
O       16.58326475       5.69329568       0.65865660       0.01026456       0.00822391      -0.01169833
C       14.04707229       6.32112239       1.12744680      -0.00297093      -0.00319145       0.00232711
C       15.76796748       8.15920901       0.15248199      -0.00056332       0.00097122       0.01204535
H       13.88517787       5.44523508       1.75051782      -0.00932405      -0.00278777       0.00025772
H       13.83729025       6.10302786       0.08160312      -0.00096599       0.00351867      -0.00119090
H       13.44509343       7.15394000       1.48106117      -0.00534276      -0.00171385       0.00367358
H       15.29297725       9.00471628       0.64250372       0.01024795       0.01195170       0.00089044
H       15.25147659       7.88488838      -0.76533523      -0.00058425       0.00088739       0.01300264
H       16.81542500       8.37720832      -0.03621434       0.00376730      -0.00650576       0.01745652
S       18.62420804      16.21966502       2.04645003       0.00220113       0.01159083       0.00241679
O       17.12907945      16.31168027       2.06409195      -0.00225526      -0.00120382       0.00307694
C       19.18346837      17.07725448       0.56507919      -0.00454242      -0.00382046       0.00475376
C       19.04510769      14.55247545       1.51890447      -0.00110476      -0.00063320       0.00093312
H       18.91779018      18.12577307       0.68440244       0.00645214      -0.00061199       0.00397307
H       18.68866076      16.67101630      -0.31191548      -0.00773787       0.00057217       0.00077807
H       20.25961972      16.96150922       0.46079809      -0.00244392       0.00098292       0.00415473
H       20.12241295      14.48380163       1.39553347       0.00540172       0.00226755      -0.00646313
H       18.52592964      14.33768948       0.58846033      -0.00052452       0.00265363      -0.00828644
H       18.72199188      13.86179250       2.29453665      -0.00373297      -0.00400471       0.00797281
S       17.75625552      10.25991434       3.13405164       0.01097861       0.00005470       0.00133986
O       17.92744437      11.73684461       3.32424416       0.00187616      -0.00010066       0.00085021
C       18.10437085       9.50676761       4.72459625      -0.00553007      -0.00292104       0.00067361
C       19.22604884       9.67375712       2.28601841       0.00831655      -0.00537964      -0.00202127
H       17.34369864       9.87958826       5.40573459      -0.00314271      -0.00897101       0.00389859
H       19.10175912       9.79984661       5.04952482      -0.01112153       0.00638216       0.00126140
H       18.01736428       8.42460917       4.64280179      -0.00270839      -0.00395501      -0.00363666
H       19.15966781       8.59383647       2.16183344      -0.00211087      -0.00243775      -0.00424643
H       20.09736170       9.95745463       2.87086240       0.00133883       0.00295170       0.00261113
H       19.24908781      10.15707107       1.31210885       0.00553230      -0.00344460      -0.00276122
S        6.77877368      16.75445831      11.29128321       0.00679440      -0.00154759      -0.00321476
O        6.37726301      16.11209910      12.59334806       0.01703038      -0.00449767       0.00448436
C        5.31236304      16.80058205      10.26877094      -0.00071412       0.00546729      -0.00910922
C        7.69357734      15.52466803      10.34919008      -0.01080068       0.00579597       0.00506564
H        4.62953567      17.51354808      10.71993231       0.01356578       0.01166366       0.00949571
H        4.84013216      15.82072515      10.23193172       0.01066000      -0.00396536      -0.00484698
H        5.59458775      17.16456883       9.28624884      -0.01299333       0.01394169      -0.01503561
H        8.29418495      16.03274788       9.60404130      -0.00230057       0.00982774       0.01013764
H        7.01961464      14.80238333       9.89954025       0.00174109      -0.01155333       0.00569526
H        8.34393390      15.03064700      11.06655468      -0.00318566      -0.00358000      -0.00292853
S        4.18623946      12.75844673       1.78247404       0.00626520       0.00092573      -0.00355103
O        3.14533682      13.81968624       2.03656323       0.00212230      -0.00075142       0.00301676
C        3.40541524      11.16068928       1.93757827       0.00340638      -0.00086067       0.00137167
C        5.23145867      12.66934743       3.23208590       0.00111992      -0.00385361       0.00338701
H        2.75271655      11.04037771       1.07529838      -0.00055301      -0.00153904       0.00290668
H        2.83347377      11.09796522       2.86269931      -0.00614217      -0.00754808       0.00042276
H        4.18878747      10.40763989       1.92457313       0.00247662      -0.00795914       0.00668139
H        5.90662830      11.82704519       3.09773152       0.00290203      -0.00408136      -0.00105746
H        4.63450442      12.52901348       4.13165835       0.00276437      -0.00270118       0.01060436
H        5.79823065      13.59905503       3.27450177       0.00647876      -0.00559162       0.00103736
S        9.90181941      19.24376877      10.54772557       0.00728106       0.01359147       0.00023631
O        9.70068206      17.78935110      10.23091687       0.01047230       0.01824782       0.02987374
C       10.03384300      19.36269775      12.32736326      -0.00127786      -0.01084547      -0.01479908
C        8.33013212      20.07281877      10.37492512       0.01108496      -0.00495527       0.00039008
H       10.96105244      18.88499344      12.63165489      -0.00898569      -0.00902873       0.00246858
H        9.16720310      18.87951422      12.77047408       0.01423078      -0.00101708       0.01570581
H       10.06341793      20.41467423      12.59771434      -0.00826878      -0.01902189      -0.02880538
H        8.53322547      21.13070913      10.51777161      -0.02098848      -0.01011101      -0.00283890
H        7.62273839      19.71305339      11.11673589       0.01275979       0.00817684       0.00106299
H        7.95857533      19.87254179       9.37173882       0.00085474       0.02939285       0.00345882
S        4.04939147       7.50186856      14.95945242       0.00145583      -0.00130256      -0.00479910
O        3.37437209       7.71460874      16.28279765      -0.00655151       0.00416685      -0.01059443
C        4.36571644       5.74281174      14.77861160      -0.00475786      -0.00070537       0.00068148
C        5.75601918       8.02207417      15.16954648       0.00167738      -0.00109162       0.00109327
H        3.40617275       5.23628812      14.84132512      -0.00440796       0.00082612      -0.00181199
H        5.03011152       5.39069763      15.55983495      -0.00909577      -0.00310350       0.00335665
H        4.81356991       5.57615023      13.80207377      -0.00037371      -0.00672422       0.00350549
H        6.38341001       7.62065916      14.37757314      -0.00259383      -0.00388782      -0.00100566
H        6.10050426       7.66920600      16.13949530       0.00067384      -0.00543116       0.00143819
H        5.77377759       9.10851614      15.13031862       0.00470142      -0.00128752       0.00211587
S        6.93232160       8.19712407       3.55527519       0.00246665       0.00520155      -0.00399856
O        6.06919798       9.34848445       3.10666482      -0.01483581       0.00112869       0.00546715
C        8.62022144       8.65485900       3.17904945      -0.00081411      -0.00712135      -0.00985695
C        6.74175148       6.90798951       2.33151421       0.00016118      -0.00333769       0.00266435
H        8.90343886       9.44865326       3.86657211       0.00521520      -0.00594161      -0.01219315
H        8.67733163       8.98363976       2.14576894      -0.00661254      -0.01502605      -0.01027904
H        9.25194522       7.78496126       3.34340946      -0.00627970      -0.01108005      -0.00879185
H        7.41993390       6.08585864       2.55015751       0.00248249      -0.00135349       0.01034206
H        6.95144346       7.29821996       1.33620621      -0.00337623       0.00378645       0.00044425
H        5.71176129       6.56530717       2.41388817      -0.00615011       0.00483733      -0.00186838
S        3.86895616       2.86211843       3.04835332       0.00756929      -0.00576390      -0.00525492
O        2.87564828       2.33433139       4.03154592       0.00341555      -0.01170345      -0.01391983
C        5.38578353       3.24047734       3.95383919      -0.00407042       0.00642060      -0.00188627
C        3.42370600       4.57224699       2.78218321      -0.00059164      -0.00664333       0.00534775
H        5.89710489       2.30933507       4.18194222      -0.01738340      -0.00013036      -0.00044320
H        5.11421737       3.77438444       4.86181788      -0.00280409       0.00541075      -0.00018442
H        6.03395743       3.83897557       3.31899747      -0.00871852       0.00122320      -0.00783241
H        4.14606099       5.00221190       2.09517805       0.00055612       0.00481854       0.00852612
H        3.41636366       5.08286345       3.74189859      -0.00079122       0.00199984       0.00046413
H        2.44429910       4.57624704       2.31461114       0.00318771      -0.00343769      -0.00159545
S        3.57027298       8.79338988       6.10077421       0.00599927       0.00778665      -0.00155116
O        2.42895217       8.74569166       7.08843357       0.01151225       0.00472094       0.00842913
C        3.03563970       7.96169902       4.60712197       0.00049514       0.00498100       0.00641794
C        4.71881406       7.52444434       6.63667303      -0.00479667       0.00388884       0.00077184
H        2.11302770       8.43701656       4.29184916       0.00509678       0.00799556      -0.00095663
H        2.89627583       6.89954057       4.79488344       0.00814405       0.00712741       0.01949865
H        3.80436379       8.13371537       3.85568910      -0.01194595      -0.01572634      -0.01131495
H        5.50893999       7.44115619       5.89581237      -0.00351215      -0.00173012       0.00246153
H        4.18271598       6.58251866       6.73392679      -0.00342018       0.00134848      -0.00719649
H        5.14871306       7.83330874       7.58517284      -0.00018668      -0.01023597       0.00520083
S       15.78213437       1.35967416       0.23093694      -0.01069876      -0.00794130      -0.02690842
O       17.27462930       1.41689121       0.39267030      -0.00895450       0.00050262      -0.01263155
C       15.10969965       2.82846989       0.98738813       0.00287228      -0.01182949      -0.00574965
C       15.16425117       0.18070020       1.42176703      -0.00117148       0.00177944      -0.00318757
H       15.46160476       3.69214453       0.42744948      -0.01384322       0.00434801       0.00887202
H       15.46929746       2.89487709       2.01123385       0.00315277      -0.00218626       0.00240906
H       14.02746723       2.74078299       0.94514693       0.00030416       0.01135328      -0.00026320
H       14.07928764       0.16797135       1.33697512      -0.00643386      -0.00591934      -0.00425232
H       15.48881611       0.46273326       2.42261765      -0.00502875       0.00137654       0.00799932
H       15.58709257      -0.78748357       1.16708490      -0.00055535      -0.00931021       0.01991135
S        9.60853059      18.81427825       6.95218114       0.00232157       0.00425684       0.01210075
O        8.82600916      19.89958409       6.24070654      -0.00960791       0.00615164       0.01152507
C       10.78028719      18.15501704       5.78019101      -0.00274674       0.00910734       0.00616038
C        8.54238112      17.37855406       7.00835952       0.00330107       0.00249193       0.00055720
H       11.57856999      18.88203054       5.66861072       0.00382488      -0.00433033      -0.00345717
H       10.28562515      17.99811696       4.82827047       0.02052249       0.00006772      -0.00533450
H       11.15762112      17.22125496       6.18972577       0.00635005       0.00420671      -0.00806393
H        9.11770713      16.57204514       7.45520828      -0.01147373      -0.01023326      -0.00279507
H        8.21652621      17.12530603       6.00116781       0.00159887      -0.00197736       0.00013233
H        7.69487805      17.63817550       7.63969661       0.00308073      -0.00136963      -0.00163381
S       10.87537542      13.69073760      11.40212452      -0.00230860       0.00162028      -0.00245807
O       10.43215532      13.42535854      12.80885761       0.00084008      -0.00343774      -0.00073869
C       12.53806617      13.03124513      11.21630231      -0.00428774      -0.00193844       0.00173997
C       11.32013919      15.42704614      11.31931416       0.00580044      -0.00079190       0.00107464
H       12.47654771      11.95367710      11.34169171       0.00296519      -0.00380330       0.00094356
H       13.18356844      13.44055745      11.99089156      -0.00452647      -0.00009720       0.00561623
H       12.90855144      13.27674168      10.22146053      -0.00253592       0.00107337       0.00039814
H       11.58962845      15.66938190      10.29247265       0.00833264      -0.00381788       0.00083058
H       12.13255006      15.63075657      12.01581580       0.00571404      -0.00176347       0.00288977
H       10.44150845      16.01122004      11.57484597       0.00442869      -0.00199312      -0.00174308
S       12.39123671       3.49421443       3.20275054      -0.01665150      -0.00319620       0.01304144
O       12.43169559       4.56038568       4.26639083       0.01854741       0.01118565       0.00703684
C       10.71675929       2.88498555       3.07023128      -0.00454995      -0.00369868      -0.00594292
C       13.10626523       1.98482475       3.85803963       0.00206947       0.00084952      -0.00050539
H       10.07583977       3.73211159       2.84418517      -0.00125232      -0.00762947      -0.01559589
H       10.40121232       2.38704338       3.98474664       0.01267995       0.00703663      -0.00153922
H       10.72316331       2.20060319       2.22580197      -0.00856935       0.00134046      -0.00718923
H       12.88416710       1.19992551       3.13644557      -0.00234896      -0.00337695       0.00610441
H       12.66710612       1.76106886       4.83054448      -0.00048973       0.01166007      -0.00583991
H       14.18313526       2.11108602       3.93785954       0.00640667      -0.01021777      -0.00994876
S        4.37543353      18.32860241       3.59688252      -0.01249711       0.01542121       0.01043200
O        5.19321580      18.50906211       2.34600734      -0.00693709      -0.01081084       0.00715581
C        5.46439996      17.60406194       4.82626544      -0.01019618       0.00287240      -0.00330534
C        3.33278894      16.88645224       3.37042080       0.00415017       0.00892359       0.00626723
H        6.20281610      18.34859039       5.10981461      -0.00833809      -0.00004185       0.00231172
H        5.95521907      16.72734480       4.40795715      -0.00297258      -0.00181159       0.00106345
H        4.85586690      17.36694036       5.69584052       0.00304629       0.00026362       0.00647389
H        2.83599600      16.69362703       4.31895608      -0.00604685       0.00952928       0.00330196
H        3.91173048      16.02993477       3.03715047      -0.00527408      -0.00471103       0.00246147
H        2.58549036      17.14088884       2.62365967      -0.00291439      -0.00151932       0.00376743
S        8.17653214      11.35853168       6.83723717       0.00578184      -0.00327100       0.00088757
O        9.42078786      10.75826218       6.23792841       0.00066286      -0.00459959      -0.00256837
C        8.22292850      11.06887675       8.60937134       0.00567506       0.00085627      -0.00368001
C        6.83677608      10.22858244       6.48696401      -0.00191313       0.00308803      -0.00505407
H        9.04892394      11.63744796       9.02831420       0.00273953       0.00000715       0.00068806
H        8.34356601      10.00516226       8.80531952       0.00212455       0.00389578      -0.00433612
H        7.28457137      11.42776528       9.02410300       0.00322038      -0.00356703      -0.01246726
H        5.94598014      10.59593685       6.98690465      -0.00218873      -0.00075862      -0.00317121
H        7.11454174       9.23128204       6.81935939       0.00103083       0.00447768      -0.00795575
H        6.66484699      10.25137116       5.41323183      -0.00231270       0.00065407      -0.00620208
S        1.33836411      17.98070910       7.83109670      -0.00907697       0.00324481      -0.00719952
O        2.18987033      17.66205766       6.62518753       0.00844630       0.00006739      -0.00111819
C        2.40398152      18.79941586       9.01832657      -0.01103716       0.00164628       0.00287606
C        1.08921908      16.46332305       8.75114029       0.00726625      -0.00124884      -0.00837784
H        2.45551510      19.85156820       8.75034884       0.00409614       0.00281072       0.00221629
H        3.39159768      18.34457291       8.96058091      -0.00402230       0.00711956      -0.00401951
H        1.96653533      18.69462457      10.00942759       0.00403437       0.00268008       0.01320040
H        0.45689883      16.70947651       9.60061691       0.00712541       0.02079898      -0.01011657
H        2.03776495      16.04593164       9.08039476       0.00781141      -0.01276871      -0.00020721
H        0.56397468      15.76519337       8.10336655      -0.00604076      -0.00605594      -0.00010002
S       13.23712207      16.99018728       8.05013113       0.00530831      -0.00455205       0.00227456
O       11.98578719      16.15948248       8.06855125      -0.00006259       0.00185839      -0.00997013
C       14.33442414      16.28060407       9.27087509       0.00251409       0.00132529       0.00416465
C       12.81798429      18.47629822       8.95750552       0.00153490       0.00270059      -0.00653508
H       14.62202097      15.29914907       8.90585475       0.00018868       0.00140341       0.00635824
H       13.79915228      16.18164008      10.21240442      -0.00331536       0.00820863      -0.00172406
H       15.21189883      16.91085523       9.39805585       0.00071638       0.00039829       0.00545533
H       13.70962187      18.95737969       9.35254707       0.00421415       0.00271268      -0.00395419
H       12.14865260      18.16889415       9.75769180       0.00127507      -0.00726807      -0.01058967
H       12.29499681      19.15592142       8.29025158      -0.01023619       0.00570161      -0.00093626
S        1.97161831      17.50838209      15.65726282       0.00981907       0.00035270       0.00895033
O        1.38264515      16.59510505      16.70997202       0.00111253      -0.01015796       0.00803747
C        1.08525829      17.15085368      14.14807503      -0.00232683       0.00098152      -0.00890285
C        3.53150780      16.77570730      15.15825573       0.00109618       0.00010643       0.00183513
H        0.09139120      17.57480431      14.23694273      -0.01676952       0.00237118      -0.00721600
H        1.03208003      16.07326191      14.00879774       0.00659696      -0.01558910       0.00075490
H        1.57855335      17.62415244      13.30751692       0.02099790       0.00749724      -0.00687207
H        3.83760261      17.20925776      14.21079956      -0.00164122      -0.00067741      -0.00358275
H        3.40032303      15.70032577      15.08822198      -0.00627567       0.00136000       0.00685121
H        4.28567550      16.99746305      15.90409081      -0.00450394      -0.01224571       0.01325323
S       11.44307480       0.56361233      18.54513198       0.00851004      -0.00017886      -0.00011571
O       12.25368372       1.33455264      19.54693209      -0.00211813       0.00955844       0.00153326
C       12.11479890      -1.09754349      18.52271275      -0.00093186       0.00277627      -0.00233002
C       12.05078090       1.05486341      16.93088972       0.00415067       0.00436753       0.00054589
H       11.93131444      -1.53536551      19.50180657      -0.00370976       0.00689761      -0.00459782
H       13.17640789      -1.04113262      18.29622829       0.00026795      -0.00097919       0.00196224
H       11.57488715      -1.65666603      17.76345363       0.00202538      -0.00864847       0.00248746
H       11.56829828       0.46049445      16.15843036      -0.01254245      -0.00724885       0.01555590
H       13.12793726       0.91626564      16.90143129       0.00553814       0.01322704      -0.01056635
H       11.79030040       2.09981324      16.79032561       0.00045780       0.00593910       0.00505300
S       14.95422359       6.03292464       9.87421363      -0.01025641      -0.00066443      -0.00439376
O       14.61112044       4.64686620      10.30980674       0.02256896      -0.01056557       0.01474811
C       13.39246223       6.90594023       9.73086083      -0.00247127      -0.01208823       0.00222666
C       15.32726158       5.95138114       8.12289987      -0.00139674      -0.00446361      -0.00423677
H       12.97411536       6.96436657      10.72951388      -0.00489817       0.00420594       0.00090335
H       12.72891689       6.33865467       9.08661526      -0.02753722       0.01555268       0.00484907
H       13.55947228       7.91019605       9.34585082       0.01585082      -0.01608019      -0.00026492
H       15.59147604       6.94652472       7.77158566      -0.00763187       0.00322999       0.00925791
H       14.47212443       5.55470000       7.58195432       0.00388720      -0.00307610      -0.01529171
H       16.19715105       5.30962682       8.01799147       0.00847163       0.00496324      -0.00174878
S       18.04124790      13.79930604      15.26810440      -0.00461106       0.00254847       0.00173352
O       17.25858733      12.55326780      14.98529052      -0.00650272       0.00291627      -0.00891092
C       19.77904979      13.35332523      15.21989517      -0.00281378       0.00770550       0.00363027
C       17.97695007      14.00455023      17.04449055      -0.00563256      -0.00515004       0.00241035
H       20.02530000      13.06952189      14.20022704      -0.00472239       0.00488694       0.00299488
H       19.95668838      12.52846035      15.91070049      -0.01470886       0.01044101       0.00910411
H       20.34090057      14.23851129      15.51441183       0.00875007       0.00459032      -0.00840464
H       18.59925239      14.85472130      17.31744113       0.00564391      -0.00688366      -0.01336149
H       18.33920780      13.08814265      17.50913042       0.00822643       0.00251924       0.01358767
H       16.94007103      14.19707724      17.29699530      -0.00838227       0.00266615      -0.00024417
S       17.12278305       5.22471002       5.16732826       0.00029208      -0.00255856      -0.00287077
O       17.83738396       4.19751266       5.98163694       0.00334640       0.00511481       0.00322640
C       15.76998465       4.34916351       4.37686277       0.00749364       0.00377410      -0.00285843
C       18.10492101       5.54156550       3.69242092      -0.00519830       0.00120155       0.00049884
H       14.98843019       4.20723381       5.12050058       0.00749065       0.01263107      -0.00222994
H       16.16208381       3.38533059       4.05358163      -0.00558251      -0.00315047       0.00288084
H       15.36914819       4.93265517       3.55138629       0.00462714       0.00306419      -0.00499295
H       17.75531765       6.46142792       3.23227192      -0.01032454       0.00308784       0.00374013
H       18.02874093       4.72665477       2.98083887      -0.00294274      -0.00092395       0.00122950
H       19.13048705       5.65589254       4.03566632      -0.00668121       0.00300803       0.00019078
S        5.09703179      14.08269541       7.74428560       0.00303792      -0.00056492       0.00151309
O        5.00629066      12.59119648       7.62341559       0.00056913      -0.00184293       0.00320749