680
Lattice="18.19 0.0 0.0 0.0 18.19 0.0 0.0 0.0 18.19" Properties=species:S:1:pos:R:3:forces:R:3 energy=-1023972.1249275858 free_energy=-1023972.1249275858 stress="-0.011599016060525212 -0.001136751048067346 0.00016542191772353162 -0.001136751048067346 -0.012068487462472223 -0.0002638344100840601 0.00016542191772353162 -0.0002638344100840601 -0.014952248997129462" pbc="T T T"
S        7.27782702       9.54099654      18.17124806       0.00308440      -0.00065117       0.00834765
O        8.10844135       8.35582759      18.60643829       0.01143385       0.00186229       0.00239907
C        7.59029204      10.83964332      19.34779564       0.00310575      -0.00196351       0.00214965
C        5.58506527       9.20466361      18.62227351      -0.00312037      -0.00046465       0.00382499
H        8.60594341      11.18975923      19.18520674      -0.00133716       0.00122047      -0.00010669
H        7.43842357      10.45853180      20.35664047       0.00873949       0.00406136       0.00162618
H        6.90232316      11.64475086      19.11451925       0.00312898      -0.00319589       0.00605761
H        5.07439580      10.15926226      18.57017771      -0.00094889       0.00390411      -0.00555233
H        5.54266763       8.77641056      19.62028137       0.00132811      -0.00100937       0.00696684
H        5.15614818       8.54426659      17.87613016       0.00813181      -0.01052934       0.00183806
S       10.52339395       7.13217523      15.90585605       0.00608134       0.00884615       0.00121659
O       11.29481834       6.27857870      14.92256902      -0.01056289       0.00857611      -0.00890544
C        8.79898021       6.94378574      15.53145168       0.00074471       0.00281563      -0.00139469
C       10.66646535       8.81466785      15.36542010      -0.00186948      -0.01032365      -0.00483080
H        8.53127316       5.91282841      15.73418960      -0.00656955       0.00293354       0.00764157
H        8.59838434       7.19590070      14.49392840      -0.00695691      -0.00208300      -0.00622703
H        8.26482291       7.59044212      16.22175175       0.00160533       0.00715222      -0.00625085
H       10.18558380       9.43917819      16.11109356       0.00405464      -0.00735819      -0.01656882
H       10.18775089       8.95074410      14.39708670       0.00172462      -0.00317317       0.00361988
H       11.71706492       9.07502908      15.32241955      -0.01409233       0.00562920      -0.00077439
S       15.68621129       1.08329005       8.10725229       0.01255279       0.02536808       0.00215453
O       15.50122917       1.68851260       9.47981778       0.00244227       0.00102507       0.00843305
C       17.24203858       1.69277768       7.51409271       0.01113860      -0.00049221      -0.00268974
C       14.68196855       2.06808455       7.01118186       0.00263577       0.00954412       0.00079915
H       18.03107737       1.13743665       8.00843942       0.00136610      -0.00715620       0.00137227
H       17.28299626       2.75218052       7.73734187      -0.01220323      -0.01020364       0.00063280
H       17.29611091       1.56504976       6.43799931      -0.00730672      -0.00745688       0.00233639
H       15.02646973       1.91594840       5.99264873       0.00575406      -0.00658711       0.00329084
H       14.80568032       3.10698189       7.30717421       0.01308612       0.00883498       0.00112899
H       13.64209685       1.78431079       7.11065710      -0.00007707       0.00309134      -0.00125391
S       16.99653771      15.28273911      11.91210441       0.00186220       0.00435267       0.00159717
O       16.76435198      16.21121508      10.75071130       0.00133111       0.00121070      -0.00093105
C       18.49913083      14.38460371      11.54464700      -0.00260843       0.00247170      -0.00216384
C       15.89836096      13.89060400      11.67888437       0.00143794      -0.00436535      -0.00837972
H       19.33816588      15.06981427      11.59756451       0.00066365      -0.00053086       0.00226627
H       18.40511832      13.97117919      10.54397906      -0.01158635      -0.00481816       0.00210532
H       18.60200582      13.59104695      12.28075996      -0.00146657       0.00467008      -0.00139744
H       16.15987731      13.11866390      12.39703653       0.00664258      -0.00215181      -0.00196197
H       15.99326897      13.53684782      10.65353840       0.00353040      -0.01258195      -0.01154623
H       14.89118318      14.23636074      11.88500425       0.00643607       0.01503595      -0.00711276
S       17.87634535       9.08496485       8.61817244      -0.01755711       0.01207382       0.02997284
O       17.55923251       7.69369212       9.06450953       0.00625888       0.01143803      -0.00153095
C       16.55152079      10.16240315       9.17149303       0.00141525      -0.00929920      -0.00743730
C       17.54245640       9.17314918       6.86817208      -0.00811164      -0.00053111       0.00831872
H       16.62279863      10.23453444      10.25498013      -0.02787863      -0.01035540      -0.02138784
H       15.58345338       9.76854939       8.88467145       0.01793759       0.02161711       0.00140324
H       16.70066556      11.15044963       8.74187662      -0.00963596      -0.00717384       0.02025595
H       17.53945856      10.21291592       6.56546345      -0.01243795       0.00601013       0.01184706
H       16.59126661       8.69266889       6.64586671      -0.02952519       0.00073884       0.00479740
H       18.36353101       8.68782268       6.35454095       0.00727317      -0.00373011       0.00813051
S       15.70894571       6.69177230       1.78565972       0.00651305      -0.00387583       0.01381773
O       16.55147791       5.70618463       1.01137231      -0.00219864      -0.00151403       0.00489550
C       13.98798803       6.21918428       1.67211476      -0.00449655      -0.00260360      -0.00212179
C       15.61933544       8.11440660       0.73395069       0.00300996      -0.00050233       0.00037403
H       13.80183423       5.33642165       2.27262451       0.00856126      -0.00420405       0.00649468
H       13.71632710       6.04853607       0.63214557      -0.01128204      -0.00132743      -0.00862962
H       13.42529827       7.04809622       2.08716133      -0.00514534       0.00038030       0.00178449
H       15.21918953       8.95511233       1.28944108       0.00401925       0.00364199       0.00400690
H       15.02597495       7.88817183      -0.14751914      -0.00362745      -0.00246665      -0.00333367
H       16.65172314       8.29453624       0.46076068       0.00485061       0.00919943      -0.00426220
S       18.42822203      16.21919618       2.33998857       0.00161269       0.00925993       0.00061358
O       16.93907273      16.08272901       2.50318431      -0.00010007       0.00210680       0.00363429
C       18.70898944      17.14245897       0.83480063      -0.00257498      -0.00230795      -0.00035685
C       19.05701005      14.65031087       1.75685863       0.00675044      -0.00720144      -0.00320851
H       18.19115533      18.09813871       0.91608267      -0.00034419      -0.00524977       0.00524413
H       18.33724260      16.58048533      -0.01519104       0.00630004      -0.00495138       0.00006616
H       19.77961898      17.29188793       0.71521104      -0.00589620       0.00293823      -0.00070382
H       20.11214309      14.75218973       1.52592468       0.01061707      -0.00191546      -0.00130051
H       18.50146843      14.33910636       0.88133131      -0.00692762      -0.00287056      -0.00105776
H       18.93884204      13.90763954       2.53551291      -0.00664083      -0.00401817       0.00225279
S       17.78776042      10.35188130       2.07306659      -0.00660944       0.00698074       0.00861068
O       18.55159619      11.60722853       2.30807549       0.01074097      -0.00162494      -0.02474668
C       16.96261472       9.93710502       3.62635553      -0.00470433       0.00375922      -0.00018762
C       18.95481291       8.98765954       2.15455939      -0.00203218       0.00354417       0.00249557
H       16.08489682      10.56441373       3.74694222       0.00244825       0.00426826       0.00373550
H       17.68659824      10.12403422       4.41337714      -0.01956384      -0.00079801       0.00361950
H       16.64016916       8.89819297       3.60613338       0.01607223       0.00345894      -0.00740162
H       18.41993482       8.04411117       2.06681738       0.00027967       0.00210538      -0.00021649
H       19.47466121       9.05171786       3.10449454       0.00645536       0.00450379      -0.00232019
H       19.64527228       9.09535007       1.32562923      -0.00606823      -0.00032220      -0.00423029
S        7.11270969      16.42081043      10.97995105      -0.00969858       0.00165203      -0.00183595
O        6.73873926      15.95304047      12.36682423      -0.00353412       0.00419968       0.00215785
C        5.63131127      16.28443884      10.00290726      -0.00654321      -0.00145220      -0.00465677
C        8.08950542      15.11541311      10.19854872       0.00358266       0.00182849       0.00322549
H        4.96202922      17.04649620      10.38415383      -0.00301724      -0.00340635       0.00318071
H        5.16395062      15.30512617      10.08896092      -0.00099936      -0.00063925       0.00930178
H        5.89068581      16.53873999       8.98191440      -0.00613414      -0.00176280      -0.00620787
H        8.94548006      15.56998764       9.71325356       0.00087121       0.00416774      -0.00638825
H        7.49090398      14.53973549       9.49882048       0.00124438       0.00322419       0.00349459
H        8.40881975      14.46356084      11.00916170      -0.00044478      -0.00889626       0.00023997
S        4.55496577      12.23906716       2.38987169       0.01115624       0.00158782      -0.01088040
O        3.66831122      13.44332676       2.57834570       0.00198817      -0.01089676       0.00714321
C        3.53512618      10.79205290       2.57446947       0.00352301       0.00017068      -0.00227661
C        5.56743702      12.12259059       3.85162271      -0.00275026       0.00435523      -0.00388635
H        3.00961912      10.66965878       1.63155291       0.00089550       0.00164277      -0.00529129
H        2.79855699      10.92819932       3.36411750      -0.00229546       0.00165978       0.00090586
H        4.18071607       9.93879949       2.76438112       0.00578497       0.00055009       0.00667275
H        6.07703163      11.16261409       3.85111388      -0.00020925       0.00885002       0.00084151
H        4.96500525      12.22831361       4.75051190       0.00725461       0.00196058       0.00418202
H        6.28943185      12.93330302       3.76581857       0.00098705      -0.00159165       0.00454921
S       10.10380784      18.89202714      10.55291145      -0.00495177       0.00975258      -0.00371995
O       10.04746808      17.42914248      10.20880072      -0.01034246       0.00220197       0.02967884
C       10.18157505      18.96494573      12.32594844       0.00231907       0.00116748      -0.01622776
C        8.46848816      19.57140948      10.35821906       0.00537647      -0.00682599      -0.00524169
H       11.15738189      18.62936911      12.65884906      -0.01221751       0.00278229       0.00842122
H        9.37687620      18.35319235      12.72244429       0.01250146       0.00606362       0.00046755
H       10.04802424      20.00248921      12.60403800       0.00329770      -0.01342065       0.00351167
H        8.59882686      20.64594491      10.31570611       0.00273981      -0.01191108       0.00714520
H        7.83002080      19.30874952      11.19705372       0.00346149       0.00339936      -0.01082725
H        8.05956875      19.18877029       9.42668100       0.00566699      -0.00398126      -0.00230288
S        3.89466681       7.38536592      14.58815216      -0.00304501       0.00098558       0.00256093
O        3.19189969       7.66256446      15.88912574       0.00159126      -0.00267627       0.00700405
C        4.07919069       5.60755343      14.48471800      -0.00250076       0.01026047      -0.00054567
C        5.63262068       7.78179412      14.85736007       0.01177482      -0.00371104       0.00054345
H        3.08165702       5.18200182      14.43955224       0.00893349      -0.00503726       0.00273391
H        4.60211427       5.23955684      15.35874473      -0.00819804      -0.00471403      -0.00808973
H        4.63013346       5.36313658      13.58168293      -0.00600921       0.00061868       0.00421214
H        6.26393553       7.28690993      14.12386826      -0.00069790      -0.01719838      -0.01123352
H        5.90787125       7.45099300      15.85565599      -0.00090003      -0.00946779       0.00899531
H        5.75899235       8.85890236      14.76679701      -0.00100289       0.00377194       0.00090773
S        7.11644685       7.68637136       3.98598544      -0.00447293      -0.00882021      -0.01509847
O        6.22027620       8.86161015       3.67138084      -0.00376674       0.00550314      -0.00476150
C        8.77333104       8.20649372       3.62016662       0.02003571       0.00495608       0.00212827
C        6.91195219       6.52632340       2.65551358      -0.00027947      -0.00733574      -0.00504571
H        9.06192068       8.93542459       4.37084581       0.00394677       0.00109839       0.02512247
H        8.79542333       8.63309708       2.62172431       0.00475501      -0.00273911      -0.01266905
H        9.41995885       7.33536696       3.68548785       0.01216287      -0.01178213       0.00571137
H        7.62376058       5.71117615       2.76932104      -0.00194297      -0.00371132      -0.01577804
H        7.08327036       7.02105558       1.70068358       0.00361725      -0.00223810       0.00729299
H        5.89538605       6.15828816       2.74776161       0.00261342       0.00193706       0.00363864
S        4.13693264       3.25906699       3.61544712      -0.00077333      -0.00044039      -0.02018367
O        3.22094867       2.70382294       4.65769403       0.01202510       0.00377816      -0.01291241
C        5.68841472       3.66859481       4.43032286      -0.00940762       0.00161385      -0.00292226
C        3.59942906       4.94170657       3.36438676       0.00200846      -0.01962191       0.00729510
H        6.22178561       2.74651387       4.64090539      -0.00098856       0.00580300       0.00233451
H        5.46728987       4.21939528       5.33926285       0.00458493      -0.01424776       0.01652477
H        6.30274909       4.25128102       3.75795836      -0.00137059       0.00004451      -0.00295505
H        4.07810488       5.33171696       2.47769973      -0.01184794      -0.00372283       0.02042529
H        3.81686934       5.52667499       4.24935897      -0.00222087       0.00116471      -0.01611936
H        2.53215337       4.88490687       3.17627363       0.01019474       0.00149900       0.00035963
S        3.92293211       8.91545593       6.31007025      -0.01191681      -0.00742076      -0.00876617
O        2.80631977       8.89111356       7.32160736       0.00199867      -0.00722142       0.00319392
C        3.26686110       8.14533642       4.84578846      -0.00570390      -0.00972197      -0.00733755
C        5.05619332       7.60882525       6.76275193      -0.00929477      -0.00433571       0.00418761
H        2.50071316       8.82560764       4.48959541       0.00931513      -0.00958645       0.00362746
H        2.84801297       7.17447072       5.09018063      -0.00186650       0.00335778       0.00726499
H        4.06780723       8.06464058       4.11665888      -0.00799726       0.00408064       0.00362968
H        5.84388737       7.57999134       6.01590826      -0.00061991      -0.00338892       0.00142602
H        4.52934167       6.65687974       6.79327354      -0.02067985      -0.00953542       0.00379018
H        5.49281295       7.85954100       7.72516459       0.00171264       0.00088872       0.00539022
S       15.50925533       1.72014973       0.66776621      -0.00615543       0.01241689      -0.00316122
O       17.01006390       1.79991278       0.73557470      -0.00524179       0.00561784      -0.00510719
C       14.89580084       3.23656055       1.33061468       0.00588311       0.00320318       0.00154407
C       14.98268218       0.66426094       1.98682337       0.00015805       0.00140848       0.00264338
H       15.13125739       4.01889963       0.61928596       0.00168620      -0.00105006       0.00366028
H       15.41603315       3.44145295       2.26295263      -0.00442823       0.00310563       0.00196399
H       13.82127650       3.13393718       1.44659368       0.01022177       0.01594248      -0.00388671
H       13.89667816       0.63451107       1.96297179      -0.00462782       0.00215324      -0.00262437
H       15.35644490       1.06215157       2.92799132       0.00818314       0.00518699       0.00694519
H       15.41656087      -0.31797511       1.82353256      -0.00220858      -0.00357202      -0.01491897
S        9.79579664      18.59763077       7.18571811      -0.00829684       0.00171931       0.01077233
O        8.94006106      19.67083806       6.54064074       0.00033858       0.00394555       0.00209797
C       11.00751789      18.08055218       5.98895129      -0.00036693       0.00747431       0.00203834
C        8.84601267      17.08954938       7.19557523      -0.00090323      -0.00328223      -0.00071873
H       11.76332723      18.85536953       5.92052523       0.00239109       0.01072464      -0.00727928
H       10.54545144      17.91945377       5.02321152       0.00223730       0.00492570      -0.00558280
H       11.44061253      17.15297517       6.35441051      -0.00161744       0.00331754       0.00442865
H        9.49990743      16.31340851       7.58204625      -0.00033901      -0.00358990       0.00303984
H        8.49346878      16.85424916       6.19466460      -0.00440661       0.00297484      -0.00241170
H        8.00755600      17.25878414       7.86585072       0.00645774       0.00832503       0.00479508
S       10.79323937      13.26488444      11.54663777      -0.00434391      -0.00423799      -0.01341476
O       10.24734716      13.07509134      12.92477264       0.00370989       0.00876626      -0.01227844
C       12.46739374      12.62390312      11.50357678       0.00401555       0.00111530      -0.00392970
C       11.22894560      15.00115426      11.39355249       0.00131944      -0.00753042      -0.00254292
H       12.43394214      11.57013247      11.75527566       0.00104943      -0.00263867      -0.00775153
H       13.08237587      13.12864169      12.24095895      -0.00097596       0.00160481       0.01228691
H       12.87219966      12.75539677      10.50307236      -0.01286985       0.00563339      -0.01304141
H       11.43235111      15.23415803      10.35091797       0.00664739      -0.00639158       0.00236665
H       12.07457638      15.24213736      12.03616714      -0.00141336       0.02514025      -0.01180700
H       10.36510142      15.58825526      11.67958811       0.00792044      -0.00476182       0.00540371
S       11.76650209       3.80246255       3.31928325      -0.00595817       0.01560716      -0.01906358
O       12.09847262       5.03720876       4.13444917      -0.01159127       0.01139888       0.00713632
C       10.16633765       3.18888891       3.84576679       0.00466518       0.00738220      -0.00550726
C       12.73138776       2.45834423       3.99395357      -0.00610167       0.00580137      -0.00074506
H        9.57381753       4.05680877       4.10822956       0.01580957       0.00849382      -0.00930056
H       10.23919501       2.50754129       4.68690325      -0.00470670       0.00125588      -0.01191037
H        9.73458716       2.71732811       2.97465678       0.00446246       0.00128063       0.00860433
H       12.36611887       1.54212920       3.53584612      -0.00745634      -0.00722705       0.00954684
H       12.60900428       2.46274494       5.07433762      -0.00272494      -0.00749529       0.01105390
H       13.76957256       2.60831784       3.72534952       0.00293196      -0.00082994       0.00013621
S        4.55774772      17.80662821       4.02334598      -0.00229995      -0.00340434      -0.00270913
O        5.36352245      18.10409730       2.78435678      -0.00204271       0.00148688      -0.00051125
C        5.69123864      17.15506438       5.24807860       0.00024100      -0.00198307      -0.00519310
C        3.66168027      16.29333903       3.72935599      -0.00168464      -0.00307117       0.00123857
H        6.37854480      17.94081949       5.54154389       0.00072909      -0.00757760       0.00894182
H        6.23563017      16.30572318       4.84023314       0.00251676      -0.00264104      -0.00064607
H        5.09373283      16.88996576       6.11330412      -0.00069316       0.00240370      -0.00530220
H        3.04100179      16.11488106       4.60129809       0.00380662       0.00105452       0.00747412
H        4.32322326      15.45919654       3.52471617       0.00222414       0.00167561      -0.00188009
H        3.02518781      16.46941553       2.86696872       0.00483614       0.00206402      -0.00218934
S        8.76725835      10.85469142       7.16069141       0.01929396       0.00615577      -0.00080118
O       10.04889814      10.09223289       6.92211010       0.01068754      -0.00946490      -0.00551515
C        8.51106785      10.95503598       8.91912903      -0.00121818       0.00495773       0.00643368
C        7.44714117       9.71898767       6.81376889       0.01092727       0.00637197       0.00091269
H        9.25316435      11.61154478       9.36055972       0.00899371       0.00806174      -0.00414720
H        8.55998817       9.95707192       9.34415040      -0.00475419      -0.00656389      -0.00287866
H        7.52220673      11.37563881       9.06663207      -0.01549894       0.00360830      -0.01219552
H        6.52616745      10.09907967       7.24269701       0.00017523      -0.01014624      -0.00679569
H        7.71453075       8.75167736       7.23081974      -0.00141017       0.00285815       0.00116451
H        7.32447889       9.67611529       5.73430332       0.00659001      -0.00802599       0.00202160
S        1.67580030      17.24150294       7.87075345      -0.00767485      -0.00185788      -0.00405383
O        2.46890804      16.84947911       6.64736299       0.00336970      -0.00461199       0.00442510
C        2.79813454      18.10623463       8.97151487      -0.00745870      -0.00589734      -0.01336357
C        1.48683295      15.79884836       8.89179335      -0.00293983      -0.00265252       0.00277975
H        2.74914947      19.16769446       8.75803765       0.00760446      -0.00778307       0.00370220
H        3.79919395      17.72819712       8.77507186      -0.00162963       0.01194447       0.00629945
H        2.49120402      17.94087916      10.00008976       0.01391604       0.00663396      -0.01148717
H        0.87432179      16.12929950       9.72422450      -0.00521195      -0.00061266       0.00483518
H        2.44961288      15.41776721       9.22280962       0.00330736       0.00106504       0.00022790
H        0.93686956      15.04445534       8.33687412       0.00107876       0.00220310      -0.01595744
S       13.14658427      16.33169286       8.12581031      -0.00401339       0.00139669      -0.01384527
O       11.80528484      15.65410034       8.07235101      -0.00741500       0.00309090       0.01098570
C       14.07630205      15.61449768       9.46394759       0.00262865       0.00128048       0.00195583
C       12.82555996      17.91022584       8.89658083      -0.00058711      -0.00045230       0.00002090
H       14.23238314      14.56187649       9.24588897      -0.00032600      -0.00280953       0.00240665
H       13.53843341      15.72807729      10.39871002      -0.00857447      -0.00432393       0.00304849
H       15.04254056      16.10931087       9.52707526       0.00823535      -0.00011012       0.00134135
H       13.73018213      18.34620877       9.30551252       0.00389239      -0.00473795       0.00234461
H       12.07076395      17.71943606       9.65693615      -0.00893708       0.00428998      -0.00145269
H       12.40774646      18.58233117       8.15643910      -0.00780847       0.00106854       0.00648536
S        2.43529208      16.92257334      15.40230592      -0.00031368      -0.00534268      -0.00281577
O        1.87640747      15.95807214      16.43323103      -0.00976404       0.00349756       0.00149652
C        1.59706475      16.54798793      13.87659782       0.00022425      -0.00162605      -0.00114538
C        4.02901641      16.25791611      14.92786580       0.00288372      -0.00287208       0.00108198
H        0.63678551      17.04511515      13.87108403      -0.00010696      -0.00328567      -0.00048689
H        1.47904563      15.47126563      13.80536206       0.00394526      -0.00007796       0.00493099
H        2.16845417      16.93108713      13.04022437       0.00006792      -0.00433964      -0.00171059
H        4.28164121      16.57990186      13.92354983      -0.00343699      -0.00019243      -0.00033441
H        3.98155485      15.17823833      15.01158627       0.00048023      -0.00255435      -0.00041048
H        4.78189889      16.63182819      15.60249329       0.00140787       0.00323868       0.00116229
S       11.34126449       1.01034243      18.11585991       0.00327517      -0.00622769       0.00367862
O       12.10169704       1.82725065      19.11572712      -0.00175706       0.00523344      -0.00236099
C       12.18069162      -0.56450912      18.12668056       0.00298041      -0.00074920       0.00086858
C       11.91766853       1.49992591      16.49419741       0.00162714      -0.00442725       0.00698739
H       11.87496748      -1.10583047      19.01672674       0.00288682       0.00020202      -0.00114373
H       13.24002135      -0.33186938      18.14056326       0.00303202      -0.00973478      -0.00024660
H       11.92800506      -1.12818734      17.23868503      -0.00115761       0.00217928       0.00171569
H       11.42787567       0.87458800      15.75432051       0.00455637       0.00341069       0.00201022
H       12.99505135       1.38977754      16.43443367       0.00012777       0.00402231      -0.01078788
H       11.62675188       2.52776758      16.32586922      -0.00152088      -0.00875040      -0.00414093
S       14.54850592       7.15359940       9.75601406      -0.00660656       0.01908552      -0.02456188
O       13.74128272       6.17807514      10.55757409       0.00771969       0.01241501      -0.00840181
C       13.36466479       8.22272604       8.90121690       0.00388927       0.00982137      -0.00600523
C       15.12648256       6.22386401       8.34322364      -0.00273897      -0.00139028       0.01227166
H       13.01022578       8.95843756       9.61849712      -0.00866557      -0.01509786      -0.00864066
H       12.53470877       7.63178378       8.52790962       0.00688114       0.01525813       0.02464418
H       13.84897492       8.76219697       8.09253361       0.01079522       0.00337216       0.02095074
H       15.64097033       6.88762757       7.65625154       0.00267276      -0.00190193       0.01961671
H       14.29250339       5.70749233       7.87599677       0.00456118      -0.00108132       0.00559577
H       15.85316789       5.50961736       8.72040010       0.00013077       0.00236588      -0.01301967
S       17.73122275      13.46079854      15.01343412      -0.01052138      -0.03717437       0.00623838
O       16.83032250      12.30555211      14.70599858      -0.02419123      -0.03203654       0.00431323
C       19.41227905      12.85888063      14.99757679       0.01263378      -0.01105327      -0.00694059
C       17.65916091      13.63153584      16.78510861      -0.00570071      -0.00070535       0.01875659
H       19.64196841      12.47623672      14.00955441      -0.00745134      -0.01190045      -0.01727806
H       19.52369387      12.07331149      15.74350781       0.00098065      -0.01437569      -0.00430060
H       20.05111089      13.70738730      15.22858900      -0.00811127       0.01477443       0.00455527
H       18.29082733      14.47420406      17.05304081       0.00525359       0.01058137       0.00202357
H       18.00008036      12.71020114      17.25792284       0.00125541      -0.00802004       0.01203494
H       16.62721783      13.83792820      17.03548069      -0.01880682       0.00360919      -0.00832685
S       16.78636448       5.40280360       5.40854665      -0.02890560       0.01421406       0.01866896
O       17.29385014       4.56100359       6.53488670       0.01075682       0.00416854      -0.01022089
C       15.36136188       4.53113012       4.78234182      -0.01418468      -0.00634473      -0.00450620
C       17.86873388       5.10403320       4.01294345      -0.00692404       0.00066770       0.02315164
H       14.58742547       4.54227444       5.54445170       0.00296500      -0.01158622       0.01584406
H       15.67124922       3.51496289       4.55320131      -0.00704990      -0.01479917       0.01465000
H       14.98118690       5.03833099       3.90346251       0.00592275       0.00858875      -0.01266423
H       17.37077356       5.29558510       3.06564341       0.01074496      -0.00479659       0.00116434
H       18.16523821       4.06483137       4.08237529       0.01333959      -0.01835823      -0.01590167
H       18.73141600       5.75833163       4.11301469       0.00830236      -0.00018588      -0.00896855
S        5.50591627      13.44937189       7.75962180       0.00087130       0.00023752      -0.00027128
O        5.33502744      12.04239699       7.27954218      -0.00321940       0.00197975       0.00045498