680
Lattice="19.7 0.0 0.0 0.0 19.7 0.0 0.0 0.0 19.7" Properties=species:S:1:pos:R:3:forces:R:3 energy=-1023977.7185413592 free_energy=-1023977.7185413592 stress="0.0009565285830793495 -0.0001048800592366894 1.1672291692120693e-05 -0.0001048800592366894 0.0008002595817542773 -9.127856931711848e-05 1.1672291692120693e-05 -9.127856931711848e-05 0.0008052046936593081" pbc="T T T"
S        7.09503731       9.51462472      18.60342556      -0.00253076       0.01874735      -0.00327208
O        7.94757317       8.37720977      19.12009070       0.00315887       0.00571260      -0.01042947
C        7.40779450      10.93345364      19.65056531       0.00423917      -0.00364811      -0.00232758
C        5.41441370       9.21839813      19.15166072      -0.00016286       0.00061451      -0.00097102
H        8.41030635      11.29444311      19.43527306      -0.00315945       0.00523685       0.01105500
H        7.29405296      10.63995639      20.69375706       0.00444142      -0.00620494      -0.00431900
H        6.68715489      11.69770721      19.37352905       0.00011563      -0.00534089      -0.00182070
H        4.85761836      10.12080285      18.91441146      -0.00024442       0.00245169       0.00180715
H        5.41115425       9.01421778      20.22056759      -0.01535106       0.01181600       0.00525223
H        5.00876347       8.38891121      18.58013281       0.00247126       0.00049152      -0.00808633
S       10.59205865       6.75779941      16.03332564      -0.00975368      -0.00519575       0.00079620
O       11.42153772       6.24820528      14.87879929      -0.00468946      -0.00064858       0.00246554
C        8.89023190       6.33665203      15.68333106       0.00684403      -0.00312356       0.00378646
C       10.43423588       8.52602438      15.81000091      -0.00214879       0.00020502       0.00527223
H        8.81283066       5.25371678      15.73509628      -0.00763360       0.00321542      -0.00298403
H        8.60282924       6.69782018      14.69742577      -0.00188194      -0.00439289       0.01655733
H        8.28062423       6.77669718      16.46949545       0.00713881      -0.00029815      -0.00841750
H        9.83350206       8.92776650      16.62351351      -0.00817733      -0.00729673       0.00726007
H        9.96114720       8.72973525      14.84976840      -0.01201009      -0.01060372       0.00546497
H       11.42901395       8.95841149      15.85835455      -0.00089349       0.00744085       0.00340583
S       16.01392250       0.63294900       8.27245882      -0.02682981       0.00163713      -0.00924435
O       15.97220997       0.65151099       9.77647360       0.00713466      -0.00171735      -0.00121297
C       17.50860576       1.47748860       7.76019294      -0.00423310      -0.00561174      -0.00121630
C       14.86863735       1.89794591       7.72781996      -0.00812544       0.00743883      -0.01102482
H       18.34272302       0.82503292       8.00634817       0.01985579       0.00861981       0.00718134
H       17.59299403       2.43135082       8.27600978      -0.00912639       0.00466392      -0.00120754
H       17.45863422       1.63056421       6.68533118       0.00027790       0.00461627      -0.00641899
H       15.01871986       2.05989619       6.66235554      -0.00213487       0.00521115      -0.01002739
H       15.04898943       2.80417507       8.30393008       0.00089626      -0.01203893      -0.00003790
H       13.85760037       1.53531595       7.88488850       0.00209824       0.00552208       0.00324785
S       17.57540948      15.48133568      11.90295874       0.00514420      -0.00075828      -0.00007452
O       17.13235879      16.47859350      10.87246039      -0.01382516      -0.00329132       0.00317485
C       19.03658285      14.65971304      11.26136051       0.00212969       0.00744571       0.00434121
C       16.46575817      14.07890516      11.76486475       0.00102962      -0.00069630      -0.00027707
H       19.86664873      15.36072496      11.30936240       0.00598230      -0.00357585       0.00655118
H       18.84693280      14.35988073      10.23119653       0.01566865      -0.00155882       0.01040076
H       19.23130100      13.79515259      11.89499143       0.00829038       0.00414427      -0.00678709
H       16.81545945      13.28734651      12.42434917      -0.00230094      -0.00575009      -0.00253382
H       16.43415135      13.75926559      10.72447776      -0.01036155       0.00291593      -0.00275753
H       15.49051188      14.42319844      12.09799190      -0.00711676      -0.00466531      -0.00202770
S       18.59258598       7.81518161       9.44858482      -0.02390498       0.00497221      -0.00050486
O       18.13836428       6.44084996       9.08336021       0.01007381      -0.01622538      -0.00705357
C       17.23808002       8.61280067      10.33691440       0.00508279       0.02019051      -0.00419136
C       18.49968213       8.79125564       7.93352619      -0.00118570       0.01344248       0.00586099
H       17.03291322       7.99489498      11.21098969      -0.00088904       0.00579172      -0.02550107
H       16.35806099       8.68660491       9.70079314       0.00151506      -0.01358445       0.00989167
H       17.55545286       9.60197075      10.66448981       0.00577703       0.02069527       0.00935512
H       18.44544705       9.85023416       8.17271263      -0.00636781       0.02215846      -0.00649033
H       17.61226258       8.47467126       7.38883366       0.00633273      -0.00508115       0.00371220
H       19.40203737       8.60406817       7.35431985      -0.00293110      -0.01574319       0.01043626
S       15.99662854       6.57982559       0.89658902      -0.01121436      -0.00131457       0.02429088
O       16.71018088       5.54569039       0.07059972      -0.02308145       0.01050799      -0.00532670
C       14.25066455       6.17396306       0.84616836       0.00768047      -0.00264220      -0.00326269
C       15.90973875       8.07929869      -0.07767903       0.00494562      -0.01697720       0.01121487
H       14.10533663       5.26707294       1.43051630       0.01870579      -0.00262588      -0.01455904
H       13.96352943       6.02474123      -0.19338974      -0.01953659       0.00311738       0.00635314
H       13.70013122       7.00223489       1.28784638       0.01411403      -0.00170215      -0.01309308
H       15.40026448       8.83630818       0.51453753       0.01051504      -0.00879007      -0.00078733
H       15.38247934       7.88567980      -1.00984539      -0.00159401      -0.00719964       0.00990211
H       16.94015580       8.37562446      -0.25611116       0.00239475       0.00955651      -0.00834944
S       18.59401080      16.28424606       1.86673606       0.03360853       0.01239150       0.03440339
O       17.10638276      16.31519420       1.70585743      -0.00210248       0.01160112      -0.01104235
C       19.28560580      17.15922810       0.45655944      -0.01147386       0.00377449       0.01259902
C       19.15489128      14.63643550       1.41033814      -0.00643614       0.02188285       0.00538193
H       18.98418065      18.20077135       0.54699737       0.00100676       0.00247853      -0.00774655
H       18.89563856      16.73575686      -0.46480159       0.00889350      -0.01595213      -0.02584286
H       20.36943990      17.07006659       0.48182561       0.01576643      -0.00164189      -0.01152467
H       20.24220785      14.61409237       1.45403920      -0.00089551      -0.00165886       0.00909151
H       18.80246130      14.40124568       0.40842826      -0.01504868       0.00258706      -0.00512478
H       18.74266978      13.93568184       2.13302694       0.00192361      -0.00817998      -0.00099661
S       17.91889593      10.43253232       2.96147978      -0.01383455      -0.01681986       0.00743050
O       17.99457666      11.90440541       3.24266535       0.00694637      -0.02009242       0.00951358
C       18.29822077       9.60374143       4.50907304      -0.00534822       0.01289844      -0.01590434
C       19.43079047       9.99676500       2.09861220      -0.01439775       0.01132825       0.00055455
H       17.50628878       9.88287894       5.20023632       0.01991136      -0.02427490       0.00439433
H       19.27426244       9.93588936       4.86069841      -0.02033817      -0.01422093       0.01747641
H       18.28479651       8.52514489       4.35560217      -0.00196530       0.02597340       0.00511457
H       19.45212052       8.92007299       1.93528103      -0.01674709       0.01738484      -0.00616988
H       20.27526446      10.32457404       2.69967982       0.00620931       0.00503980      -0.01632091
H       19.40915208      10.51364805       1.14241271       0.02448226      -0.01323924      -0.01781007
S        6.55880898      16.89883469      11.53660071       0.02715643      -0.02343078      -0.00246663
O        6.15889968      16.11121712      12.75628614      -0.00485242      -0.01058764       0.00613579
C        5.11117443      16.98344558      10.48507510       0.00922023       0.00225870       0.00384406
C        7.52980022      15.79869875      10.50537874      -0.00285475      -0.00480378       0.00304876
H        4.34464997      17.49962585      11.05491129      -0.00542772       0.02194900      -0.00132216
H        4.76085580      15.97944031      10.25573205      -0.01171260      -0.00179055      -0.00218674
H        5.35917844      17.55663615       9.59635490      -0.01042123       0.00827611      -0.00955089
H        7.95272242      16.36665297       9.68422227      -0.01468994       0.01081215       0.00802261
H        6.91714295      14.97166167      10.15719584      -0.00080802       0.00657454       0.00588533
H        8.33696928      15.42948716      11.13267687      -0.00012653       0.00201110       0.00037419
S        4.00289125      12.88500376       1.78037217       0.01285149       0.00605249      -0.01109056
O        2.93047769      13.88677722       2.10981456       0.00294156      -0.00894794       0.00946564
C        3.27144530      11.25144909       1.81725273       0.00241357       0.00671672       0.00239700
C        5.04675967      12.70509782       3.22902152       0.00188560      -0.00563492      -0.00302785
H        2.60179938      11.18880340       0.96176770       0.00585588      -0.00333550      -0.00509936
H        2.72231048      11.10674322       2.74705342      -0.00112794      -0.01056642       0.00476631
H        4.07337476      10.52317828       1.72271475      -0.00485554      -0.00699001       0.00749838
H        5.75371007      11.90116203       3.03410400      -0.00591665      -0.01518164      -0.00186090
H        4.44384765      12.47183191       4.10530065      -0.00049296      -0.00527417       0.00335953
H        5.57927662      13.64671561       3.35387380       0.00963851      -0.00607431      -0.00021008
S        9.86297770      19.44833235      10.48098254      -0.02412691      -0.01241661       0.02625137
O        9.60561913      18.00216717      10.16960521       0.03525070      -0.01800245       0.00370920
C       10.08159322      19.55724754      12.25447416       0.00192815      -0.00319899       0.02000120
C        8.29992279      20.30186631      10.38796416      -0.00933550       0.00954711      -0.00327486
H       11.02258568      19.07837110      12.51166825       0.00746526      -0.01689905       0.00803396
H        9.23982157      19.07751976      12.74615709      -0.01375944      -0.01627489      -0.02299680
H       10.12580207      20.60773286      12.52481846       0.00844327       0.01023144      -0.02330776
H        8.50742807      21.34945953      10.58920854      -0.02385176       0.01461133       0.00982293
H        7.61210677      19.89327240      11.12291676      -0.00401819       0.02263709      -0.00158294
H        7.90883900      20.16175660       9.38232339      -0.01001648       0.01369188      -0.00090422
S        4.19082392       7.36084264      15.17983590      -0.00247352       0.00010684      -0.01015883
O        3.57084115       7.56063017      16.53194420       0.00451007       0.00126255      -0.00520042
C        4.67606746       5.63710402      15.04722953      -0.00208294       0.00142535      -0.00118251
C        5.84397817       8.04539449      15.28405638      -0.00306004       0.00161027      -0.00475596
H        3.77333254       5.03776772      15.13078200       0.00128836      -0.00080047      -0.00956149
H        5.37666433       5.37850110      15.83520746      -0.00414593      -0.00221609      -0.00135160
H        5.14016847       5.49184938      14.07490857      -0.00539466      -0.00648038      -0.00137826
H        6.46762461       7.66681283      14.47785122       0.00345133       0.00506382       0.00038858
H        6.25939069       7.76944953      16.25197262      -0.00680945       0.00247894       0.00126963
H        5.75795990       9.12530279      15.19576739       0.00117732       0.00387038       0.00265725
S        6.89807635       8.17510619       3.30427951      -0.01684888      -0.02364007       0.00797982
O        6.03844204       9.34588965       2.89881324      -0.01527210       0.01814728      -0.01367621
C        8.56473098       8.55317067       2.77797700       0.01670257      -0.00239051       0.01141494
C        6.59145866       6.87457387       2.11006513      -0.00739306      -0.00633863      -0.00343987
H        8.91458621       9.38128937       3.38782780       0.01871700       0.03399171       0.01864953
H        8.55450766       8.79899165       1.71877681      -0.01094588       0.01253058      -0.02998568
H        9.17862213       7.67365868       2.95850316       0.00344843      -0.02309849       0.00209142
H        7.22249019       6.01713649       2.33699611      -0.00513941      -0.00008167       0.00939090
H        6.81928719       7.24016655       1.11044197      -0.00604800      -0.00559208      -0.00509326
H        5.54111722       6.60747829       2.20771167      -0.00566177      -0.00726227       0.00996233
S        3.64655860       2.56829455       2.96952026      -0.02458948      -0.00317230      -0.00532990
O        2.63389294       2.08366775       3.95955694      -0.00438565      -0.02716379       0.01223034
C        5.14039126       2.99201249       3.88452500       0.01111482       0.00627147       0.01479675
C        3.19367837       4.26016315       2.60487238       0.00148901       0.01135120      -0.00334981
H        5.64421626       2.07164500       4.16169303       0.01651716      -0.03053959      -0.00168696
H        4.85666453       3.56450830       4.76454196      -0.02830571       0.02815245       0.01116361
H        5.79541644       3.56390355       3.23456419       0.00092489       0.00843353      -0.02909434
H        3.94161280       4.66410024       1.92898950       0.01690620       0.00714468      -0.00599777
H        3.13275960       4.81918506       3.53632120       0.01099513       0.00063784       0.01206522
H        2.23736805       4.22829905       2.09115834      -0.00136132       0.00121900      -0.00457111
S        3.38654103       8.80998460       6.14118885       0.00976956      -0.00296863       0.00371673
O        2.23405829       8.72919754       7.11418925      -0.00568978       0.00141468      -0.01217128
C        2.87880024       8.01133149       4.62128732       0.00489289      -0.00278094       0.01175765
C        4.54582603       7.54187612       6.65659792      -0.00367791       0.00072240       0.00656839
H        2.00074141       8.54055648       4.26612567       0.00651303       0.00222509       0.00434917
H        2.67734254       6.95826596       4.80480029      -0.00321880      -0.00911961      -0.00290026
H        3.68973557       8.13910452       3.90645525      -0.00299059      -0.00724295      -0.00690698
H        5.34294919       7.48021672       5.91893188      -0.00738496       0.01013145       0.00721435
H        4.01846188       6.59245575       6.72934669      -0.00388358       0.00031944      -0.01788205
H        4.96286391       7.83326304       7.61674208       0.01852794      -0.00159626      -0.00226320
S       16.01009521       0.96781801       0.12773916       0.00506699      -0.00596995      -0.04210361
O       17.50246802       0.88616125       0.26940463       0.01017618      -0.00303202       0.00387675
C       15.48346713       2.46651982       0.95308960       0.00594411      -0.02321223      -0.00663032
C       15.31477289      -0.20718413       1.28098636       0.00179150       0.01260612       0.00224075
H       15.88350897       3.31597213       0.40129273       0.00098073      -0.00457817       0.01611056
H       15.87420341       2.45714156       1.96941093      -0.00815141      -0.01187534       0.01421985
H       14.39624646       2.47792073       0.93935809       0.00584051       0.00307221       0.00577137
H       14.23137226      -0.15632874       1.19119988      -0.00621947      -0.00175573       0.00065038
H       15.65214505       0.03286893       2.28765459      -0.00512113      -0.00590916       0.03187873
H       15.68336899      -1.18961633       0.99731335      -0.01723469       0.00194794       0.00254008
S        9.57605826      19.01594329       6.84741214      -0.00390060      -0.00369384       0.00531297
O        8.75164991      20.07195094       6.14049204      -0.00050421       0.00163961      -0.01369232
C       10.75174050      18.38617147       5.65950611       0.00185496       0.00294661       0.01071361
C        8.54788842      17.55507339       6.94289668       0.00199250      -0.00566347       0.00138693
H       11.50857785      19.15247340       5.52085716       0.00303799      -0.00099609      -0.00189126
H       10.25048529      18.18472821       4.71820684      -0.01447585       0.00907268       0.01803705
H       11.18917584      17.48270369       6.07910555       0.01459674      -0.00254802      -0.00194049
H        9.14952196      16.76455004       7.38351917      -0.00993202      -0.01751331       0.00442700
H        8.19852123      17.28906906       5.94690604       0.01075126      -0.00207625      -0.00440524
H        7.71325178      17.80239812       7.59598657       0.00060408       0.00380525      -0.00334434
S       10.87988995      13.99694886      11.40060661      -0.00397198       0.01272946      -0.00029422
O       10.43550247      13.78747979      12.81566043      -0.00447735      -0.00603193      -0.00089501
C       12.51544756      13.26387505      11.23086433      -0.00284402       0.00296899       0.00178985
C       11.40752770      15.70580249      11.27327480       0.00739514       0.01099770      -0.00620914
H       12.40700341      12.18917422      11.35078955       0.00508800       0.00193416      -0.00524113
H       13.16222809      13.64699632      12.01784495       0.00913512      -0.00498171       0.00004402
H       12.91020641      13.49898951      10.24327241       0.00156085      -0.00263213      -0.00053942
H       11.73715382      15.88755906      10.25172962       0.00388106      -0.00575145      -0.01580276
H       12.19546794      15.89467091      12.00129509       0.00553855      -0.01132812       0.00421978
H       10.54556442      16.34101790      11.45792272      -0.00852936      -0.01028189       0.00566557
S       12.62525218       3.22493105       3.13629352      -0.03441214      -0.00047474      -0.01724950
O       12.65268147       4.28306397       4.20743961       0.01184145      -0.02801649       0.00698287
C       10.94849032       2.61623746       2.97195946       0.00470757       0.00169715      -0.01049916
C       13.33646187       1.71900866       3.80909388       0.00004111       0.03134748      -0.00132986
H       10.31616954       3.45712772       2.69679634       0.01673967       0.00907104      -0.00319043
H       10.60778601       2.15881206       3.89880192       0.00737926       0.00072996      -0.02081604
H       10.97041260       1.89493107       2.15745170       0.01036157      -0.00859771       0.00881700
H       13.12254892       0.91790533       3.10162839      -0.00149876       0.02649897       0.02592789
H       12.88811015       1.51661165       4.78235169      -0.01080728      -0.00593758      -0.01574384
H       14.41343290       1.84991231       3.89377854       0.01289154      -0.02822258       0.00254643
S        4.31640682      18.47744645       3.53805499      -0.01190126       0.01293160      -0.00748127
O        5.09230279      18.60507937       2.25691001      -0.00287205       0.00579291      -0.00699136
C        5.44034075      17.79838078       4.76581185      -0.00442138       0.00017417      -0.00278565
C        3.27228024      17.02256510       3.40951692      -0.00588578       0.00327181      -0.00093121
H        6.20093398      18.54230496       4.98529392      -0.00034240       0.00578833      -0.00356645
H        5.90268077      16.89562061       4.37191099       0.00597006       0.00020171      -0.00684265
H        4.86024179      17.60913342       5.66693836       0.00614671      -0.00643790       0.01344254
H        2.78773734      16.88437217       4.37382792      -0.00375993      -0.00056565       0.00606360
H        3.85033516      16.14960981       3.11982581       0.00933873       0.00566875      -0.01221289
H        2.51691104      17.22799207       2.65657765      -0.00662167       0.01066479      -0.01158478
S        8.01017701      11.48193316       6.59118453      -0.00252461      -0.00406759      -0.00398741
O        9.22350571      10.85452446       5.95748476       0.00272467      -0.00185463       0.00277881
C        8.06350692      11.13573542       8.35403193       0.00081038      -0.00240293      -0.00955828
C        6.61252463      10.42147174       6.22659272      -0.00585234      -0.00278892      -0.00406527
H        8.92013396      11.65709686       8.77575924      -0.00352629      -0.00679660      -0.00057278
H        8.14636493      10.06272198       8.51538488       0.00405278       0.00216082       0.00525379
H        7.14267721      11.52000636       8.78514020       0.00621228      -0.00227927      -0.00440645
H        5.74683347      10.82744775       6.74233230      -0.00277466       0.00146368       0.00038940
H        6.84012144       9.40862460       6.54928039       0.00312778      -0.00138329      -0.00258298
H        6.44473331      10.45160303       5.15244250       0.00157233       0.00685307      -0.00488550
S        1.19997287      18.19535165       7.80659950      -0.02156386       0.01727226      -0.01531506
O        2.11319971      17.90450703       6.64239847       0.00735294      -0.00789611       0.00599019
C        2.18606071      19.04967684       9.03991178      -0.00466625      -0.00669447      -0.01009554
C        0.95185368      16.66891736       8.71632793       0.00644389       0.00797783      -0.00502466
H        2.24552651      20.09629537       8.74953535       0.00468461      -0.00084452       0.00129318
H        3.17906157      18.60368178       9.05185869       0.01439458       0.00146576       0.00759610
H        1.69598722      18.95931697      10.00798396       0.00543466      -0.00115138       0.00361973
H        0.30470097      16.90306499       9.55798337       0.00021597       0.01557591      -0.00206325
H        1.89431918      16.25076283       9.06320973       0.02616426       0.00675175      -0.00598473
H        0.44333382      15.97132984       8.05466069      -0.00084105      -0.00214858      -0.00184383
S       13.33991499      17.25844949       8.01042205      -0.00040492      -0.00172765       0.00193628
O       12.11366306      16.39252151       7.95812600       0.00282389      -0.00889508       0.00503746
C       14.44861978      16.51676692       9.20670624      -0.00405541      -0.00536919      -0.00551556
C       12.86253059      18.67422738       9.00368524       0.00527623       0.00137343      -0.00254643
H       14.75664826      15.55815360       8.79893104       0.01304072      -0.00562715       0.01312722
H       13.91979426      16.36697747      10.14514909      -0.00567190      -0.00316751      -0.00814564
H       15.31413435      17.15671801       9.36566359      -0.00965577      -0.00383462      -0.00899217
H       13.73836984      19.17218626       9.41462397      -0.00016155       0.00984701      -0.00351104
H       12.21749666      18.29459335       9.79341547       0.00615750       0.00734453      -0.00037325
H       12.29992240      19.35720980       8.37213300       0.00249248       0.00872071       0.00679096
S        1.67554725      17.35320317      15.81383567      -0.02047792       0.00870972       0.01516905
O        1.09511441      16.37716017      16.80620956      -0.01419664      -0.02976793       0.00955170
C        0.86973281      17.01620282      14.24786967      -0.00667021       0.00455272      -0.01047459
C        3.29992340      16.74604609      15.36333032      -0.00559815      -0.00554812      -0.00365715
H       -0.17357248      17.29500927      14.35505434      -0.02198835       0.00584723      -0.01241331
H        0.95312551      15.96018734      14.00338829       0.01043389      -0.01448294       0.02657722
H        1.31072439      17.62194122      13.46525766       0.02270619       0.02890671       0.00073100
H        3.66238696      17.33068583      14.52276792       0.02558860       0.01184564      -0.00977024
H        3.23317985      15.68880490      15.12445287      -0.00882142      -0.01866607      -0.01605184
H        3.96836352      16.88158552      16.20795248       0.01371777       0.00315794       0.00764018
S       11.58893160       0.35922073      18.87039382       0.00715054       0.00381102      -0.00439399
O       12.49049686       1.11157498      19.80533495      -0.00011646       0.00608338       0.01490547
C       12.15775955      -1.34217975      18.85478229      -0.00574239       0.00417837      -0.00572073
C       12.11565192       0.77051147      17.20323988       0.00008531       0.00068684      -0.00249881
H       11.99499182      -1.74201957      19.85385542       0.00212705      -0.00234628      -0.00751449
H       13.20936073      -1.35488642      18.57824294      -0.00390303      -0.00452544      -0.00107300
H       11.55344045      -1.88772006      18.13239266      -0.00571580      -0.00245016      -0.00304929
H       11.53539592       0.18211497      16.49491728      -0.01643517      -0.00283635       0.00156232
H       13.17759465       0.56382144      17.09622001       0.00099264       0.00028233       0.01174140
H       11.91104149       1.82659494      17.04877680       0.00103912       0.00156576      -0.00041554
S       15.00272786       5.80588162       9.96578350       0.00316338      -0.00038530      -0.00584631
O       14.74225746       4.38374251      10.34230983       0.02673109       0.00588955       0.04048305
C       13.39991650       6.61393007       9.97127308      -0.00185751      -0.00839969      -0.00325528
C       15.25603688       5.82392418       8.19062644      -0.00343515      -0.00739120      -0.00761331
H       13.05104285       6.60793100      10.99818921      -0.00115535       0.00209806       0.00333896
H       12.71863423       6.04454012       9.34693151      -0.02663189       0.00712074      -0.00437867
H       13.49546890       7.63954367       9.62111676       0.02249638       0.00093045       0.00667488
H       15.39075517       6.85163591       7.85773948       0.00298447       0.00778938       0.01756183
H       14.40186725       5.35652666       7.70842711       0.00114245       0.00144576      -0.04307822
H       16.17362514       5.27574347       8.00138770      -0.00158939      -0.00852668      -0.00568020
S       18.18645859      13.89203414      15.39010944       0.01121500       0.00700392      -0.00111828
O       17.35038749      12.68150061      15.09327708       0.01000089       0.00294152       0.01886988
C       19.90152598      13.37431204      15.27856484      -0.01671511      -0.00184876       0.00560022
C       18.17649074      14.07625273      17.17582009       0.00177410      -0.00510183      -0.01537028
H       20.09103753      13.08164613      14.24866994      -0.01069874       0.01794423       0.00796501
H       20.06554971      12.53766811      15.95932203       0.02513993       0.01395824       0.00322392
H       20.50574251      14.23673525      15.55818663       0.01396658      -0.03569777       0.00530483
H       18.85047093      14.88958153      17.43911457      -0.00458388       0.00010585      -0.01886141
H       18.50861911      13.14001627      17.62305518      -0.01644036      -0.00529678       0.00451419
H       17.15775251      14.32308141      17.45924277       0.00779247      -0.00167858       0.00137000
S       17.44131396       5.04069764       5.05998000      -0.01195572      -0.00519010       0.00838299
O       18.26772865       3.97281898       5.69458495       0.00393175       0.00038207       0.01279340
C       16.01060452       4.20599607       4.35405835      -0.00598641      -0.00493274       0.00487812
C       18.24026659       5.48106937       3.50641984      -0.00153123       0.00111807      -0.00077265
H       15.29381118       4.03656928       5.15376801      -0.00356470      -0.00787622       0.00195098
H       16.36265348       3.25411376       3.95857084      -0.01134234      -0.00629136       0.00319922
H       15.54398311       4.82396599       3.59087845       0.00158751       0.00499882       0.00376693
H       17.80446181       6.40635396       3.14177218      -0.01150553       0.00598827      -0.00034767
H       18.12237082       4.69455065       2.76694096       0.01033736       0.00154699      -0.01688807
H       19.29128797       5.62840131       3.74492313       0.00145487      -0.00072732       0.00093124
S        5.05354361      14.27665532       7.79422378       0.00255768       0.00344423      -0.00187757
O        5.00121292      12.77762324       7.77425133      -0.00028894      -0.00002373      -0.00924583