680
Lattice="18.7 0.0 0.0 0.0 18.7 0.0 0.0 0.0 18.7" Properties=species:S:1:pos:R:3:forces:R:3 energy=-1023976.6373979591 free_energy=-1023976.6373979591 stress="-0.0055435033785834024 -0.0004696990005921116 5.698781376731643e-05 -0.0004696990005921116 -0.005042013687193782 -0.0005600910113581528 5.698781376731643e-05 -0.0005600910113581528 -0.006691980967874948" pbc="T T T"
S        7.65555951       9.62916537      18.65526312      -0.00031802       0.00325332      -0.01174750
O        8.48124387       8.49653859      19.21806909       0.00353326       0.00478704      -0.00884787
C        7.68535105      10.94675663      19.85895249      -0.00327388      -0.00186214      -0.00838696
C        5.93267844       9.19361873      18.89413678       0.00013096       0.00589327       0.00135792
H        8.64126286      11.45860729      19.78519043      -0.00048638      -0.01421008      -0.00298551
H        7.51533882      10.50858626      20.84124098       0.00419856       0.00945343      -0.00249262
H        6.89328968      11.63795693      19.57725074       0.01101585       0.01555883      -0.00374963
H        5.35526500      10.07080788      18.61862410       0.00214661       0.00796155      -0.00438451
H        5.75406980       8.91105240      19.92842466      -0.00359138      -0.00418710       0.00115862
H        5.68090422       8.38213397      18.22156543       0.01279087       0.00676233      -0.00358502
S       10.81227361       7.19395042      16.44113064      -0.00367126      -0.00204540      -0.00412207
O       11.61125749       6.35184910      15.47490124       0.00459489      -0.00693425       0.00503371
C        9.09099978       6.95598855      16.03997668      -0.00720115      -0.00348095       0.00200293
C       10.89386776       8.88712288      15.90478224       0.00102165       0.00365572      -0.00270025
H        8.80281610       5.96618394      16.37532087       0.00228514      -0.00818400       0.00046045
H        8.93653880       7.06216350      14.96833495       0.00224587       0.00072099       0.00087655
H        8.52924735       7.69610520      16.60171054      -0.00473280      -0.00464279       0.01067044
H       10.36218806       9.48581488      16.64223719       0.00474094       0.00455948       0.00123313
H       10.42326935       8.98965515      14.92759964      -0.00046412       0.00687332      -0.00202000
H       11.93506556       9.18790959      15.87710475       0.00238390       0.00218623      -0.00134946
S       16.08483412       1.27935804       8.32230616      -0.00032815      -0.00389407       0.00237442
O       15.85225358       1.28696524       9.81224875       0.00553648       0.00518477       0.00288404
C       17.59996980       2.17137953       8.05656120      -0.00320733      -0.00213332       0.00561268
C       15.00156151       2.52995038       7.64805642      -0.00101617      -0.00424515      -0.00180178
H       18.41426392       1.53841802       8.39909375      -0.00177632       0.00135453       0.00365466
H       17.56256279       3.09980903       8.62128414      -0.00141760      -0.00493182       0.00920914
H       17.70466144       2.38935664       6.99850672      -0.00486336      -0.00185656       0.00747204
H       15.39638545       2.85366791       6.68827699      -0.01055843       0.00166038      -0.00334346
H       14.97853473       3.35154600       8.36004932      -0.00352398      -0.00275269      -0.00377176
H       14.00197069       2.12692787       7.52289881      -0.00247991       0.00270344      -0.00403722
S       17.51472263      15.50575177      11.79489131      -0.00138784      -0.00381040      -0.00389704
O       17.27456597      16.24199046      10.50725359      -0.01015228       0.00127323       0.00043664
C       19.12777411      14.73627005      11.66786647       0.00261136      -0.00053330       0.00234183
C       16.54883506      13.99908867      11.72756527      -0.00538280       0.00321462       0.00169758
H       19.87668836      15.52152335      11.70413849       0.00578379      -0.00364426      -0.00074636
H       19.17126425      14.20053373      10.72292984       0.00296274       0.00249282       0.00279759
H       19.23799381      14.05297411      12.50656988       0.00865502      -0.00058758       0.00200574
H       16.67232974      13.46040603      12.66494104      -0.00563504       0.00492271       0.00045270
H       16.87179545      13.39966769      10.87906850      -0.00555148       0.00763034       0.00412896
H       15.51388822      14.30431345      11.60352006      -0.00287058       0.00356870      -0.00094854
S       18.30267820       9.09185813       9.36609134      -0.00254853      -0.00244741      -0.00880015
O       17.79207936       7.82538321       8.75484928      -0.00237696      -0.00308422      -0.00982324
C       16.92550889       9.82524739      10.25491464       0.00188522       0.00174390       0.00076602
C       18.38000113      10.25482291       8.01001005       0.00056934       0.00563269       0.00398086
H       16.60550716       9.07348091      10.97121785      -0.00744301       0.00492644      -0.00116990
H       16.12032231      10.08324547       9.56995809       0.00408757       0.00142144      -0.00014217
H       17.27521548      10.70270675      10.79467601      -0.00795253       0.00132965       0.01004205
H       18.43715110      11.27675386       8.37486184       0.00893820       0.00249688       0.00869919
H       17.47590704      10.10558173       7.42589433       0.00523704       0.01396370       0.00005396
H       19.26926431      10.01258738       7.43346467      -0.00556205       0.00545326      -0.00041587
S       15.60853859       7.48534270       2.14911075      -0.00809743       0.00535977       0.00465907
O       16.37212571       6.38478486       1.45348276      -0.00723889       0.00610581       0.00334890
C       13.87521843       7.14513740       1.85908396      -0.00392708      -0.00186976       0.00054302
C       15.74435921       8.93224803       1.12248093       0.00053427      -0.00286072      -0.00276906
H       13.65810694       6.17903557       2.30883795      -0.00486130      -0.00406745      -0.00426875
H       13.69110974       7.13111239       0.78503341       0.00329210      -0.00139169      -0.00014704
H       13.29867505       7.92671334       2.34711817      -0.00740947      -0.00482898      -0.00102633
H       15.26219187       9.75565251       1.64199739       0.01080891       0.00643053      -0.01373190
H       15.30187379       8.73486038       0.14822536       0.01027301       0.01089964      -0.00857676
H       16.80706092       9.13465125       1.03795810       0.00002288      -0.00802120       0.00284562
S       18.64948244      16.37251723       2.33927297       0.00431078       0.00534900      -0.01094391
O       17.15261590      16.32408361       2.27552232       0.00472151      -0.00923497       0.01003488
C       19.18667301      17.29525642       0.90162181      -0.00177948       0.01024858       0.00153813
C       19.26388452      14.75509427       1.85281680      -0.00549082       0.00320034       0.00005296
H       18.79289756      18.30575718       1.01184949      -0.00292175       0.00990816      -0.00179818
H       18.80780365      16.84158279      -0.00934232      -0.00907790      -0.01145211       0.02232843
H       20.27260571      17.31443074       0.86671361      -0.00268974      -0.00644077       0.01034957
H       20.34917492      14.79478000       1.78725107      -0.00931086      -0.00542257      -0.00704092
H       18.82733220      14.48140330       0.89662560       0.00791157      -0.00232826      -0.00108188
H       18.97379080      14.03783812       2.61793630      -0.00188293       0.00771803       0.00614332
S       17.98131819      10.65196957       3.27895416       0.00071506      -0.00639113      -0.00036346
O       18.14115587      12.06530110       3.74381576       0.00816094      -0.00787297      -0.00356160
C       18.16804026       9.60813674       4.72166134       0.00102818      -0.00423525       0.00468603
C       19.51887171      10.17137495       2.49547519      -0.00716406       0.01115565       0.00024450
H       17.28120378       9.73817618       5.33351891      -0.00560655      -0.00932580       0.00291502
H       19.05737398       9.93050612       5.25466644       0.00617716      -0.00128164      -0.00273598
H       18.23551694       8.56689188       4.41221232       0.01454116      -0.00003897      -0.00718557
H       19.45107066       9.12797328       2.18785361      -0.00538901       0.01528795       0.01008154
H       20.32393703      10.33049081       3.20662930      -0.01457614      -0.00232091       0.00472134
H       19.65087997      10.80250907       1.62064234       0.00363874      -0.00209498      -0.00546961
S        7.33257155      16.90308623      11.76903066       0.00681639      -0.00211353      -0.00359780
O        6.47946518      16.26818862      12.83014778       0.00130486       0.00552864      -0.00330478
C        6.27154235      17.31980717      10.39250751       0.00348511       0.00098715       0.00206178
C        8.21068085      15.57049888      10.95115345       0.00621843      -0.00834551       0.00384418
H        5.72690977      18.22193708      10.63922882      -0.00319190       0.00074423      -0.00871801
H        5.59432759      16.48463463      10.21817706       0.01010389       0.00036609      -0.00837938
H        6.90710395      17.54363530       9.54067764       0.00297403      -0.00468651       0.00395336
H        8.92347754      16.01853243      10.26715983       0.00208073      -0.00147350       0.00362348
H        7.51075700      14.93067998      10.42736285      -0.00383805       0.00244038       0.00449784
H        8.72112732      14.99631237      11.72280174       0.00521352      -0.00774871       0.00801355
S        4.82736064      12.83569466       2.34123315      -0.00079070       0.00672119       0.00832568
O        3.78420853      13.85735625       2.72549926      -0.00677468       0.00384218      -0.00303890
C        4.09737541      11.21629772       2.48562059      -0.00298425       0.00989530      -0.00111142
C        5.97043700      12.70626886       3.70566466      -0.00241544       0.00031708      -0.00058660
H        3.44213870      11.08420169       1.62754860      -0.00424773      -0.00612284       0.00365622
H        3.53443860      11.14772232       3.41692952      -0.00662921       0.00549551      -0.00632008
H        4.89269641      10.47728858       2.46218015      -0.00341185       0.01267548       0.00310570
H        6.66433366      11.90360728       3.47454422       0.00130738       0.00443232       0.00792509
H        5.44117358      12.49560005       4.63286616       0.00287274       0.00706780      -0.00309680
H        6.51022036      13.65059733       3.75191136      -0.00300008      -0.00445002      -0.00199742
S       10.15741809      19.43819957      10.73127076      -0.00166236      -0.00415987      -0.00301440
O        9.89186080      18.02542022      10.28495058      -0.00081272      -0.00270768      -0.00570441
C       10.34688884      19.38361415      12.50337806      -0.00173370      -0.00062061      -0.00345642
C        8.61580580      20.32324391      10.70453730       0.00039683      -0.00589393       0.00063748
H       11.27175223      18.87068696      12.74355037      -0.00012026       0.00326862      -0.00125887
H        9.48405485      18.87576738      12.92259687      -0.00227793       0.00294371       0.00106144
H       10.40093556      20.40642826      12.85917971      -0.00289014       0.00180425      -0.01031081
H        8.84936607      21.33895848      11.00977777       0.00654617      -0.00675935      -0.00388202
H        7.90112052      19.87620750      11.38803830      -0.00192150       0.00010879       0.00223151
H        8.22594952      20.30852832       9.69123678       0.00130937      -0.00452615       0.00124101
S        4.20689644       7.59209994      14.90919409       0.00197560      -0.00140008       0.00116814
O        3.43871952       7.80520305      16.18528240      -0.00315287       0.00011350      -0.00232847
C        4.41211233       5.82488898      14.69781618      -0.00358371       0.00086732       0.00358028
C        5.92255956       7.97813474      15.28177105       0.00168724      -0.00050842       0.00411406
H        3.44115890       5.39731116      14.46652888      -0.00027599      -0.00354504       0.00169673
H        4.80800672       5.38185119      15.60443439      -0.00580318       0.00089161       0.00208595
H        5.08846082       5.65938553      13.86505234      -0.00037428      -0.00461231       0.00971160
H        6.57477955       7.64328265      14.47973076      -0.00151879      -0.00439685       0.00251096
H        6.19654575       7.48218977      16.20907137      -0.00481427      -0.00351779       0.00457306
H        5.99262678       9.05827080      15.38807836      -0.00123007       0.00100437       0.00213407
S        7.07044432       7.94885048       4.09908541      -0.00703915       0.00458769      -0.00190232
O        6.29871094       9.19583017       3.74635920      -0.00883050       0.00234789      -0.00448417
C        8.78437132       8.30410714       3.76949771      -0.00301012      -0.00029405       0.00374212
C        6.76831362       6.79726455       2.77615460       0.00326317       0.00176103      -0.00015074
H        9.09130064       9.07625656       4.47003532       0.00259612       0.00702127      -0.00612482
H        8.87963558       8.63942706       2.73986818      -0.00709555      -0.00253973       0.00392514
H        9.35953686       7.39580200       3.93954834      -0.00513946      -0.00387920      -0.00162185
H        7.34594650       5.89067116       2.93629638       0.00622805       0.00517345       0.00640992
H        7.05229287       7.24297365       1.82548596      -0.00166923      -0.00535650      -0.00420133
H        5.70198873       6.58479388       2.82103461       0.00558577      -0.00403472      -0.00507088
S        4.11557750       3.20966279       3.86162773      -0.00278376      -0.00503975      -0.00007741
O        3.38497365       2.74651881       5.08435532       0.01086476       0.00130068       0.00987793
C        5.71314631       3.80888977       4.42343527       0.00083900       0.00352442      -0.00267071
C        3.47798601       4.82629824       3.42344402      -0.00087236      -0.00733683       0.00275140
H        6.26945675       2.96257572       4.81805927       0.00279145       0.00684121       0.00447317
H        5.53780855       4.56231012       5.18506816       0.00982922       0.00852096      -0.00239200
H        6.26172684       4.21613611       3.58491427       0.01081696      -0.00106578       0.00032498
H        4.04655388       5.17183534       2.56662127       0.00271580      -0.01578077       0.00268954
H        3.57160770       5.49232046       4.27740472       0.00479464      -0.01350614       0.00571351
H        2.44882271       4.70391889       3.10554844      -0.00169333       0.00650854       0.00322958
S        3.90949597       9.25120750       6.52886223      -0.00102437       0.00243513       0.00264197
O        2.81768566       9.20312618       7.57327944       0.00111087      -0.00372699       0.00458794
C        3.29226659       8.40742025       5.08086612       0.00186914       0.00017495       0.00316777
C        5.09557325       8.00439323       7.01217481      -0.00135225       0.00055573      -0.00281188
H        2.38115614       8.91784047       4.78912040       0.00646877       0.00098520      -0.00299651
H        3.10448478       7.36272099       5.31480507      -0.00567314       0.00084569      -0.00139344
H        4.04050765       8.51461253       4.29853991      -0.00518429      -0.00467407      -0.00282136
H        5.85267334       7.93559394       6.23827556       0.00262195      -0.00387620       0.00179116
H        4.58166267       7.05204278       7.11750742      -0.00099699       0.00113056       0.00208746
H        5.56174493       8.30998879       7.94540402       0.00025204      -0.00406941      -0.00386038
S       16.27600181       1.76190708       0.64550245       0.00604963      -0.03843963      -0.02903493
O       17.76877416       1.60319398       0.76841588       0.01293021       0.02390862      -0.03063387
C       15.84132960       3.19309449       1.60951487       0.02774972      -0.02732281      -0.01835584
C       15.54257736       0.53703206       1.70298362      -0.01440146      -0.00867248       0.00939040
H       16.28128932       4.07076778       1.14579561      -0.01322893       0.01300545       0.01214999
H       16.24631427       3.04972088       2.60789066      -0.00589855      -0.00102044       0.00566358
H       14.75633694       3.27397778       1.61147338       0.03303230      -0.01732955      -0.00845881
H       14.46421987       0.61960483       1.58848584      -0.02065451       0.00434085      -0.01009533
H       15.84922090       0.70261070       2.73321707       0.01716652       0.03311064      -0.00120868
H       15.90271584      -0.43467599       1.38082884      -0.00397121      -0.00290574       0.00762912
S        9.90229340      19.08196464       7.23239516      -0.01176325       0.00490634      -0.00346538
O        8.95799115      20.10127201       6.62208792      -0.01183959       0.00432405      -0.00532811
C       11.04100643      18.57135138       5.95950088      -0.00566635      -0.00395335       0.00480726
C        8.98636887      17.55591551       7.31189387       0.00209875      -0.00431333      -0.00743877
H       11.76448364      19.36671238       5.81920384      -0.00020057      -0.01421221      -0.00138634
H       10.50615718      18.39239318       5.03459707       0.00211558       0.00669357      -0.00001224
H       11.52315381      17.66208560       6.31092522       0.00818333       0.00050839      -0.00152615
H        9.65815424      16.77703938       7.65897140       0.00595362      -0.00235480      -0.00573578
H        8.57520306      17.33362712       6.32996523      -0.00535443      -0.00079453      -0.00528101
H        8.19706935      17.70261308       8.04206873       0.00368384      -0.00752716      -0.00755716
S       11.11272637      13.89479517      11.41641296      -0.00103972      -0.00013756      -0.00251515
O       10.57901355      13.57540977      12.78409635      -0.00317569       0.00149956      -0.00270553
C       12.77784733      13.23106624      11.31020091       0.00000407      -0.00131565      -0.00479813
C       11.59275978      15.62178946      11.44617388      -0.00079882      -0.00182053       0.00047425
H       12.70323395      12.14824984      11.36420407      -0.00326022      -0.00169837      -0.00727357
H       13.37605148      13.59026467      12.14550056      -0.00330687      -0.00382902      -0.00077717
H       13.21293989      13.51969622      10.35317200       0.00259429       0.00071682      -0.00429883
H       11.91241963      15.90265228      10.44470880       0.00020667       0.00041152       0.00224555
H       12.37622943      15.76130285      12.18813712      -0.00247742      -0.00148266       0.00098388
H       10.72047808      16.21968006      11.69033493       0.00116425      -0.00081616       0.00229572
S       12.79931882       3.81688993       3.59118979      -0.00925528       0.00355589      -0.00613970
O       12.83999358       4.92717120       4.61578053      -0.00548754      -0.00283237      -0.00116548
C       11.14210919       3.16039072       3.56283030      -0.00258343       0.00566392      -0.00056496
C       13.57266190       2.36439388       4.29569986      -0.00286714       0.00310837      -0.00395441
H       10.45833421       3.98765743       3.41123296       0.00066047       0.00576878      -0.00523370
H       10.90157003       2.62797354       4.47991679       0.00257703       0.00319017      -0.00371869
H       11.10509687       2.49456225       2.70517415       0.00718515       0.00758966       0.00094682
H       13.28421513       1.52728291       3.66309098       0.00063368      -0.00227046       0.00111797
H       13.19744731       2.24051925       5.31037194       0.00034862      -0.00158118      -0.00260795
H       14.65348289       2.47400186       4.27599090      -0.00122055      -0.00046779       0.00550067
S        4.50456518      18.31741963       3.93090401      -0.01098845      -0.01128335       0.00830494
O        5.23151076      18.53958343       2.63072603      -0.01482164       0.00061276       0.00915398
C        5.48662793      17.17136064       4.88778185       0.01015932       0.00039085       0.00089907
C        3.14463998      17.20156946       3.60786465      -0.00550317      -0.00125239      -0.01150009
H        6.42394763      17.66562514       5.11605287       0.01039482       0.00348563       0.01040690
H        5.67374734      16.26560515       4.31737315      -0.00342825      -0.00228874       0.00305697
H        4.92490522      16.98395822       5.79741273       0.00687212       0.00021769      -0.00498110
H        2.69695433      16.94762149       4.56463782       0.01698049       0.01643921      -0.00171902
H        3.49091571      16.31307453       3.08321322      -0.00365589      -0.00501747      -0.00040579
H        2.42368098      17.75498020       3.01427168      -0.01585776      -0.00036797      -0.00106250
S        8.81465794      11.31966145       6.97802091      -0.00214755       0.00051768       0.00118568
O        9.92439585      10.72620725       6.14985112      -0.00250117       0.00128377      -0.00010910
C        8.97038646      10.68362876       8.64479571       0.00195493       0.00032699       0.00288153
C        7.31899644      10.46204383       6.53345813      -0.00106554      -0.00154720       0.00279545
H        9.95982610      10.95162108       9.00562277       0.00398569       0.00178491      -0.00104521
H        8.82518570       9.60618097       8.66726988       0.00263674      -0.00067334       0.00195621
H        8.21605066      11.17504928       9.25282200       0.00178001       0.00116210       0.00332237
H        6.50211760      10.85246216       7.13431325      -0.00204848      -0.00455596       0.00285529
H        7.46353784       9.39661174       6.68623001       0.00280269      -0.00080599       0.00235736
H        7.12245659      10.66816148       5.48469713      -0.00252846      -0.00030244       0.00354521
S        1.97054306      17.95288738       8.12959659       0.00628840      -0.00506207       0.01345314
O        2.87869761      17.56503892       6.98420498      -0.01074913      -0.00950307       0.00146311
C        2.98570135      18.74455211       9.37302435       0.00495940       0.00468098       0.00845206
C        1.60141413      16.46157279       9.04893800      -0.00074116      -0.00597359      -0.00474955
H        3.10027545      19.78968839       9.10369053       0.00091171       0.00747449       0.00500920
H        3.95554775      18.25583069       9.39577186      -0.00554733      -0.01155998      -0.00367432
H        2.48320015      18.66278907      10.33473946      -0.00043104      -0.00464222       0.00465489
H        0.80611640      16.70837770       9.74498628       0.00648248       0.00143233      -0.00863168
H        2.47984196      16.09770675       9.57577131      -0.00731504       0.00155670      -0.00289215
H        1.23819068      15.72072456       8.34118797       0.00043573      -0.00956526       0.00168242
S       13.40395107      17.24941976       8.14098930       0.00217489       0.00192198       0.00181662
O       12.17107679      16.38812676       8.13739185       0.00230895       0.00215546      -0.00176346
C       14.54352811      16.52035775       9.29897946       0.00475362      -0.00066932      -0.00190576
C       12.95373878      18.68123900       9.10679331       0.00159785      -0.00156037       0.00308059
H       14.87386983      15.57610633       8.87962402       0.00753234      -0.00046722      -0.00188203
H       14.02858681      16.32803916      10.23548462      -0.00055076       0.00061555      -0.00421099
H       15.38743784      17.18486445       9.46143741       0.00413500       0.00098512      -0.00271636
H       13.83081790      19.15425074       9.53775097      -0.00060490      -0.00158978       0.00387517
H       12.27473253      18.32596569       9.87752773       0.00174909       0.00622517       0.00442575
H       12.42837920      19.38625838       8.46853886       0.00259703      -0.00404180       0.00223996
S        2.33098263      17.43991553      15.62670350      -0.00292618      -0.00396931       0.00645079
O        1.72893805      16.54942938      16.69427877      -0.00185303      -0.00626274       0.00289824
C        1.54228545      16.97416792      14.09480101       0.00127363       0.00111719       0.00349454
C        3.95662410      16.77718252      15.25893848      -0.00759117       0.00220312       0.00462028
H        0.56974644      17.45100113      14.05638382      -0.00082268      -0.00816896      -0.00825343
H        1.44465728      15.89262719      14.06004650       0.00160796       0.00412796       0.01725356
H        2.12434827      17.33621622      13.25495947       0.00148209      -0.00376219       0.00257486
H        4.21614773      16.98427811      14.22512264       0.01079666      -0.00596684       0.01077827
H        3.94532912      15.71219841      15.46311945       0.00559702       0.00775379       0.01212125
H        4.68413220      17.26181815      15.89521247      -0.00190396      -0.00184399      -0.00595369
S       11.79048965       1.18766084      18.61755040      -0.00104875      -0.00078180       0.00556924
O       12.76797889       1.94961076      19.46635762       0.00502514       0.00004155      -0.00318355
C       12.34272640      -0.51206668      18.56173730       0.00421062      -0.00141704      -0.00064433
C       12.16937321       1.58893308      16.91346139      -0.00025202       0.00092294       0.00487619
H       12.25571077      -0.91291064      19.56826194      -0.00070993       0.00363890       0.00252675
H       13.36493116      -0.53661287      18.19466829       0.00852899       0.00172808       0.00194026
H       11.66639912      -1.04888781      17.90125491      -0.00096137       0.00617999      -0.00547368
H       11.51668447       1.00598490      16.26705888       0.00669962       0.01168066      -0.00899110
H       13.21504165       1.37498510      16.71125614      -0.00200926       0.00338698      -0.00572371
H       11.96573306       2.64684415      16.77445961       0.00414276      -0.00152200      -0.01021624
S       15.45574129       6.41330258      10.09491183       0.00259865      -0.00432728       0.00069483
O       14.90672147       5.20869595      10.79496316       0.00099491      -0.00388620       0.00019856
C       14.08003525       7.53697692       9.82882975       0.00667790      -0.00373229       0.00145627
C       15.66099801       5.94424635       8.38353728       0.00389379      -0.00652277      -0.00031681
H       13.82486758       7.98080027      10.78523034       0.00884826      -0.00685150       0.00275786
H       13.23441270       6.97672301       9.44159594       0.00815169      -0.00454834       0.00235703
H       14.39203129       8.31449837       9.13617780       0.00701446      -0.00447450       0.00152922
H       15.94945793       6.82117392       7.81796202       0.00457506      -0.00591856      -0.00072362
H       14.73502622       5.50211730       8.02645980       0.00154435      -0.00563439       0.00223052
H       16.47697772       5.22867045       8.33429377       0.00414646      -0.00804441       0.00120697
S       18.11191266      13.79797191      15.31857722      -0.00791319       0.00250357       0.00199463
O       17.31191971      12.55880597      15.05751336      -0.01510583       0.00564124       0.00396938
C       19.83645034      13.32884440      15.38259893      -0.00571265       0.00374327       0.00093623
C       17.97712254      14.06424674      17.07822822       0.00376795      -0.00019377       0.00557817
H       20.13530527      12.97472443      14.40172238      -0.00266067       0.00519735       0.00134688
H       19.96459457      12.54920281      16.13279405      -0.01567906       0.00181408       0.00110506
H       20.39407435      14.22534155      15.64806049       0.00148392      -0.00099114       0.00816897
H       18.59072941      14.92176135      17.34576469       0.01059781       0.00081005      -0.00163653
H       18.31380972      13.15990763      17.58482546       0.00163546      -0.00406211       0.00438315
H       16.93523858      14.26949608      17.28507365      -0.00073922      -0.00455483      -0.00706500
S       17.41321314       5.65651602       5.38745996       0.00066466       0.00291332      -0.00796311
O       18.00732579       4.68088565       6.35647083       0.00087309       0.00581005      -0.00789768
C       16.00913316       4.80968049       4.68785973       0.00195350      -0.00327416       0.00841860
C       18.43833036       5.62990006       3.92085793       0.00185943      -0.00759611      -0.00501903
H       15.20545596       4.81698259       5.41952732       0.00215006       0.01775045       0.00866166
H       16.33643269       3.79141584       4.49050072      -0.00551087      -0.00538533       0.00703277
H       15.67063390       5.30391649       3.77957242       0.01470972      -0.00876733       0.00434347
H       18.00042592       6.26989779       3.15905314       0.00396066      -0.01507719      -0.00946948
H       18.50194052       4.60901082       3.55789506       0.00151751      -0.00772217      -0.00502579
H       19.42238317       5.99038731       4.21048272      -0.00043364      -0.00051544      -0.00501292
S        5.98636304      14.21056312       8.18111456      -0.00313902       0.00151884      -0.00016024
O        5.59218455      12.76830153       8.06025068       0.00045543      -0.00002372      -0.00008510