28
Properties=species:S:1:pos:R:3:forces:R:3 energy=-22672.356085662654 stress="inf inf -inf inf -inf inf -inf inf inf" free_energy=-22672.356085662654 pbc="F F F"
C       -4.96030935       0.47646632      -2.45775854       0.00019600      -0.00594708      -0.00152919
C       -3.61478173       0.37389982      -2.15487912      -0.00371792      -0.00641955      -0.00240273
C       -3.18516877       0.35257225      -0.83109710       0.00169001      -0.00026134      -0.00300011
C       -4.15258230       0.42416158       0.16726201      -0.00670431       0.00189201      -0.00127890
C       -5.50261444       0.50330743      -0.12289671       0.00319095       0.00201811      -0.00248176
C       -5.90858179       0.53945960      -1.44487998      -0.00265445      -0.00021952       0.00175266
H       -5.27213632       0.49938606      -3.49162639      -0.00349823      -0.00875434      -0.00046794
H       -2.87264080       0.30322593      -2.93373753      -0.00226975      -0.01113518      -0.00282524
H       -6.21214525       0.53895185       0.68859267      -0.00110374       0.00488539       0.00133608
H       -6.95913706       0.61353219      -1.68183380      -0.00061112       0.00025710       0.00014819
N       -1.81729541       0.19977840      -0.45544828       0.00072912       0.00780726      -0.00082323
N       -1.02548271       0.43192086      -1.37986769      -0.00361182       0.00085180       0.00445255
C        0.34272307       0.35122628      -1.03476665      -0.00106544       0.00629661       0.00303548
C        1.24886496       0.35975241      -2.08864674      -0.00075003       0.00908924       0.00289261
C        0.81327342       0.35468109       0.27963248       0.00059926       0.00287086       0.00346923
C        2.60801839       0.35745222      -1.84694139      -0.00209071       0.00499709       0.00132663
H        0.86811845       0.36658101      -3.09970863      -0.00279394       0.01511439       0.00318962
C        2.16735916       0.37485292       0.52415489       0.00013127      -0.00174175       0.00147737
H        0.10424187       0.37479859       1.09300850       0.00142647       0.00224818       0.00402080
C        3.08652600       0.38146160      -0.53471744      -0.00017117      -0.00237555       0.00107364
H        3.30866563       0.36259139      -2.67032186      -0.00198663       0.00727551       0.00092171
H        2.53239542       0.40740962       1.54156092       0.00195304      -0.00590216       0.00140006
N       -3.78978756       0.45077693       1.59816151       0.03906049       0.02646987      -0.00808181
O       -4.51746794      -0.16669791       2.35280645       0.02470946      -0.04235492       0.00360719
O       -2.83098840       1.10821108       1.93692512      -0.03970797       0.02687719      -0.01078575
N        4.44152692       0.47647295      -0.28174399       0.00057656      -0.00951148      -0.00011694
H        4.75383253       0.19762054       0.63061587       0.00000883      -0.00985422      -0.00021901
H        5.06197203       0.20782194      -1.02357856      -0.00153422      -0.01447350      -0.00009123
